! Touchstone file from project WEST_ICRH_final_bridge_impedance-trans
! Exported from HFSS 15.0.3
!Data is not renormalized
# GHZ S MA
! Modal data exported
! Port[1] = 1:1
! Port[2] = 2:1
0.04             0.138565693526602 -8.72543978275541 0.990353244342318 -10.5022393615325 0.990353244342318 -10.5022393615325 0.138565693524945 167.720961059841 
! Gamma  !      -0               0.838338008780534 -0               0.838338008780985 
! Port Impedance  29.738965038445  0                40.0095141675495 0                

0.0401           0.138523033046239 -8.75006533745379 0.990359212264581 -10.5285972709743 0.990359212264582 -10.5285972709743 0.138523033044843 167.692870795661 
! Gamma  !      0                0.840433853802492 0                0.840433853802966 
! Port Impedance  29.738965038445  0                40.0095141675499 0                

0.0402           0.138480273287488 -8.77471332494304 0.990365192195117 -10.5549559271216 0.990365192195118 -10.5549559271216 0.138480273286335 167.664801470862 
! Gamma  !      0                0.84252969882445 0                0.842529698824954 
! Port Impedance  29.738965038445  0                40.0095141675503 0                

0.0403           0.138437414309134 -8.79938381910828 0.990371184112631 -10.5813153315919 0.990371184112631 -10.5813153315919 0.138437414308205 167.636753156095 
! Gamma  !      0                0.844625543846407 0                0.84462554384695 
! Port Impedance  29.738965038445  0                40.0095141675506 0                

0.0404           0.138394456170169 -8.82407689398425 0.990377187995781 -10.6076754860011 0.990377187995781 -10.6076754860011 0.138394456169446 167.608725922161 
! Gamma  !      0                0.846721388868365 0                0.84672138886896 
! Port Impedance  29.738965038445  0                40.009514167551  0                

0.0405           0.138351398929791 -8.84879262375588 0.990383203823175 -10.634036391963 0.990383203823176 -10.634036391963 0.13835139892926 167.580719840019 
! Gamma  !      0                0.848817233890322 0                0.848817233890991 
! Port Impedance  29.7389650384449 0                40.0095141675513 0                

0.0406           0.138308242647412 -8.87353108275882 0.990389231573375 -10.6603980510896 0.990389231573375 -10.6603980510896 0.138308242647055 167.55273498078  
! Gamma  !      0                0.85091307891228 0                0.850913078913055 
! Port Impedance  29.7389650384449 0                40.0095141675517 0                

0.0407           0.138264987382648 -8.89829234548012 0.990395271224892 -10.6867604649909 0.990395271224892 -10.686760464991 0.138264987382452 167.524771415709 
! Gamma  !      0                0.853008923934238 0                0.853008923935184 
! Port Impedance  29.7389650384449 0                40.009514167552  0                

0.0408           0.13822163319533 -8.92307648655868 0.99040132275619 -10.7131236352747 0.99040132275619 -10.7131236352747 0.138221633195279 167.496829216232 
! Gamma  !      0                0.855104768956195 0                0.855104768957452 
! Port Impedance  29.7389650384449 0                40.0095141675523 0                

0.0409           0.138178180145494 -8.94788358078594 0.990407386145684 -10.7394875635443 0.990407386145684 -10.7394875635443 0.138178180145577 167.468908453932 
! Gamma  !      0                0.857200613978153 0                0.857200613980136 
! Port Impedance  29.7389650384449 0                40.0095141675527 0                

0.041            0.138134628293392 -8.9727137031064 0.99041346137174 -10.7658522513766 0.99041346137174 -10.7658522513766 0.138134628293594 167.441009200601 
! Gamma  !      0                0.859296459000111 0                0.859296459005687 
! Port Impedance  29.7389650384449 0                40.009514167553  0                

0.0411           0.138090977699485 -8.99756692861823 0.990419548412677 -10.7922177005758 0.990419548412677 -10.7922177005758 0.138090977699795 167.413131527727 
! Gamma  !      0                0.861392304022069 0                0.861392304016542 
! Port Impedance  29.7389650384449 0                40.0095141675533 0                

0.0412           0.138047228424446 -9.02244333257386 0.990425647246765 -10.8185839124039 0.990425647246765 -10.8185839124039 0.138047228424851 167.385275508039 
! Gamma  !      0                0.863488149044027 0                0.863488149042298 
! Port Impedance  29.7389650384448 0                40.0095141675536 0                

0.0413           0.138003380529161 -9.04734299038055 0.990431757852225 -10.8449508886659 0.990431757852225 -10.8449508886659 0.138003380529652 167.357441213335 
! Gamma  !      0                0.865583994065986 0                0.865583994064998 
! Port Impedance  29.7389650384448 0                40.009514167554  0                

0.0414           0.13795943407473 -9.07226597760096 0.990437880207231 -10.8713186309292 0.990437880207231 -10.8713186309292 0.137959434075295 167.329628716041 
! Gamma  !      0                0.867679839087944 0                0.867679839087271 
! Port Impedance  29.7389650384448 0                40.0095141675543 0                

0.0415           0.137915389122465 -9.09721236995383 0.990444014289908 -10.8976871407861 0.990444014289908 -10.8976871407861 0.137915389123095 167.301838088693 
! Gamma  !      0                0.869775684109903 0                0.869775684109401 
! Port Impedance  29.7389650384448 0                40.0095141675546 0                

0.0416           0.137871245733894 -9.12218224331445 0.990450160078333 -10.9240564198294 0.990450160078332 -10.9240564198294 0.13787124573458 167.274069403979 
! Gamma  !      0                0.871871529131862 0                0.871871529131466 
! Port Impedance  29.7389650384448 0                40.0095141675549 0                

0.0417           0.137827003970759 -9.14717567371535 0.990456317550534 -10.9504264696506 0.990456317550534 -10.9504264696506 0.137827003971492 167.246322734749 
! Gamma  !      0                0.873967374153821 0                0.873967374153497 
! Port Impedance  29.7389650384448 0                40.0095141675552 0                

0.0418           0.137782663895018 -9.17219273734685 0.990462486684493 -10.9767972918395 0.990462486684492 -10.9767972918395 0.137782663895789 167.218598154014 
! Gamma  !      0                0.876063219175781 0                0.876063219175507 
! Port Impedance  29.7389650384448 0                40.0095141675555 0                

0.0419           0.137738225568843 -9.19723351055766 0.990468667458142 -11.0031688879842 0.990468667458141 -11.0031688879842 0.137738225569645 167.190895734947 
! Gamma  !      0                0.878159064197741 0                0.878159064197504 
! Port Impedance  29.7389650384447 0                40.0095141675558 0                

0.042            0.137693689054626 -9.22229806985551 0.990474859849364 -11.0295412596707 0.990474859849364 -11.0295412596707 0.137693689055451 167.163215550882 
! Gamma  !      0                0.880254909219702 0                0.880254909219491 
! Port Impedance  29.7389650384447 0                40.009514167556  0                

0.0421           0.137649054414972 -9.24738649190772 0.990481063835998 -11.0559144084835 0.990481063835998 -11.0559144084835 0.137649054415814 167.135557675318 
! Gamma  !      0                0.882350754241664 0                0.882350754241472 
! Port Impedance  29.7389650384447 0                40.0095141675563 0                

0.0422           0.137604321712707 -9.27249885354182 0.990487279395832 -11.0822883360048 0.990487279395832 -11.0822883360048 0.13760432171356 167.107922181919 
! Gamma  !      0                0.884446599263626 0                0.884446599263448 
! Port Impedance  29.7389650384447 0                40.0095141675566 0                

0.0423           0.137559491010874 -9.29763523174612 0.990493506506606 -11.1086630438153 0.990493506506605 -11.1086630438153 0.137559491011732 167.08030914451  
! Gamma  !      0                0.88654244428559 0                0.88654244428542 
! Port Impedance  29.7389650384447 0                40.0095141675569 0                

0.0424           0.137514562372735 -9.32279570367039 0.990499745146012 -11.1350385334936 0.990499745146012 -11.1350385334936 0.137514562373591 167.052718637086 
! Gamma  !      0                0.888638289307556 0                0.888638289307389 
! Port Impedance  29.7389650384446 0                40.0095141675572 0                

0.0425           0.13746953586177 -9.34798034662636 0.990505995291697 -11.1614148066163 0.990505995291696 -11.1614148066163 0.13746953586262 167.025150733803 
! Gamma  !      -0               0.890734134329523 -0               0.890734134329356 
! Port Impedance  29.7389650384446 0                40.0095141675575 0                

0.0426           0.137424411541681 -9.37318923808845 0.990512256921256 -11.1877918647583 0.990512256921255 -11.1877918647583 0.13742441154252 166.997605508986 
! Gamma  !      0                0.892829979351495 0                0.892829979351321 
! Port Impedance  29.7389650384446 0                40.0095141675578 0                

0.0427           0.13737918947639 -9.39842245569425 0.990518530012238 -11.2141697094926 0.990518530012238 -11.2141697094926 0.137379189477213 166.970083037128 
! Gamma  !      0                0.894925824373471 0                0.894925824373285 
! Port Impedance  29.7389650384446 0                40.009514167558  0                

0.0428           0.137333869730038 -9.42368007724525 0.990524814542146 -11.2405483423899 0.990524814542146 -11.2405483423899 0.137333869730842 166.942583392888 
! Gamma  !      0                0.897021669395454 0                0.897021669395247 
! Port Impedance  29.7389650384445 0                40.0095141675583 0                

0.0429           0.137288452366991 -9.44896218070732 0.990531110488433 -11.2669277650195 0.990531110488433 -11.2669277650195 0.137288452367772 166.915106651094 
! Gamma  !      0                0.899117514417449 0                0.899117514417209 
! Port Impedance  29.7389650384445 0                40.0095141675586 0                

0.043            0.137242937451836 -9.47426884421131 0.990537417828505 -11.2933079789483 0.990537417828505 -11.2933079789484 0.13724293745259 166.887652886741 
! Gamma  !      0                0.901213359439467 0                0.901213359439169 
! Port Impedance  29.7389650384445 0                40.0095141675589 0                

0.0431           0.137197325049381 -9.49960014605344 0.99054373653972 -11.3196889857413 0.99054373653972 -11.3196889857413 0.137197325050105 166.860222174998 
! Gamma  !      0                0.903309204461532 0                0.903309204461129 
! Port Impedance  29.7389650384445 0                40.0095141675591 0                

0.0432           0.137151615224661 -9.52495616469479 0.990550066599389 -11.3460707869608 0.990550066599389 -11.3460707869608 0.137151615225352 166.832814591199 
! Gamma  !      0                0.905405049483733 0                0.905405049483088 
! Port Impedance  29.7389650384444 0                40.0095141675594 0                

0.0433           0.137105808042932 -9.55033697875033 0.990556407984776 -11.3724533841604 0.990556407984776 -11.3724533841604 0.137105808043587 166.805430210853 
! Gamma  !      0                0.907500894506731 0                0.907500894505046 
! Port Impedance  29.7389650384444 0                40.0095141675597 0                

0.0434           0.137059903569676 -9.57574266716132 0.990562760673096 -11.3988367789716 0.990562760673095 -11.3988367789716 0.137059903570293 166.778069109639 
! Gamma  !      0                0.909596739524261 0                0.909596739527004 
! Port Impedance  29.7389650384444 0                40.0095141675599 0                

0.0435           0.1370139018706  -9.60117330862145 0.990569124641516 -11.4252209728155 0.990569124641516 -11.4252209728155 0.137013901871176 166.750731363406 
! Gamma  !      0                0.911692584548197 0                0.911692584548962 
! Port Impedance  29.7389650384444 0                40.0095141675602 0                

0.0436           0.136967803011638 -9.6266289824504 0.990575499867159 -11.4516059673403 0.990575499867158 -11.4516059673403 0.136967803012171 166.72341704818  
! Gamma  !      0                0.913788429570469 0                0.913788429570918 
! Port Impedance  29.7389650384443 0                40.0095141675605 0                

0.0437           0.136921607058948 -9.6521097679185 0.990581886327096 -11.4779917640825 0.990581886327096 -11.4779917640825 0.136921607059437 166.696126240156 
! Gamma  !      0                0.915884274592554 0                0.915884274592875 
! Port Impedance  29.7389650384443 0                40.0095141675608 0                

0.0438           0.136875314078917 -9.67761574449708 0.990588283998354 -11.5043783645924 0.990588283998354 -11.5043783645924 0.13687531407936 166.668859015706 
! Gamma  !      0                0.917980119614579 0                0.917980119614832 
! Port Impedance  29.7389650384442 0                40.009514167561  0                

0.0439           0.13682892413816 -9.70314699183038 0.990594692857912 -11.5307657704191 0.990594692857911 -11.5307657704191 0.136828924138555 166.641615451376 
! Gamma  !      0                0.920075964636578 0                0.920075964636788 
! Port Impedance  29.7389650384442 0                40.0095141675613 0                

0.044            0.136782437303519 -9.72870358973447 0.9906011128827  -11.5571539831103 0.9906011128827  -11.5571539831103 0.136782437303865 166.614395623886 
! Gamma  !      0                0.922171809658562 0                0.922171809658743 
! Port Impedance  29.7389650384441 0                40.0095141675616 0                

0.0441           0.136735853642065 -9.75428561819759 0.990607544049603 -11.5835430042115 0.990607544049602 -11.5835430042115 0.136735853642361 166.587199610134 
! Gamma  !      0                0.924267654680539 0                0.924267654680699 
! Port Impedance  29.7389650384441 0                40.0095141675619 0                

0.0442           0.1366891732211  -9.77989315738068 0.990613986335457 -11.6099328352664 0.990613986335456 -11.6099328352664 0.136689173221345 166.560027487193 
! Gamma  !      0                0.92636349970251 0                0.926363499702654 
! Port Impedance  29.738965038444  0                40.0095141675621 0                

0.0443           0.136642396108154 -9.805526287618  0.990620439717052 -11.6363234778167 0.990620439717051 -11.6363234778167 0.136642396108347 166.532879332313 
! Gamma  !      0                0.928459344724478 0                0.92845934472461 
! Port Impedance  29.7389650384439 0                40.0095141675624 0                

0.0444           0.136595522370991 -9.83118508941772 0.99062690417113 -11.6627149334023 0.990626904171129 -11.6627149334023 0.13659552237113 166.505755222924 
! Gamma  !      0                0.930555189746443 0                0.930555189746565 
! Port Impedance  29.7389650384438 0                40.0095141675627 0                

0.0445           0.136548552077603 -9.85686964346263 0.990633379674386 -11.6891072035608 0.990633379674386 -11.6891072035608 0.136548552077687 166.478655236633 
! Gamma  !      0                0.932651034768406 0                0.932651034768519 
! Port Impedance  29.7389650384437 0                40.009514167563  0                

0.0446           0.136501485296215 -9.88258003061073 0.990639866203469 -11.715500289828 0.990639866203469 -11.715500289828 0.136501485296245 166.451579451226 
! Gamma  !      0                0.934746879790368 0                0.934746879790474 
! Port Impedance  29.7389650384435 0                40.0095141675633 0                

0.0447           0.136454322095287 -9.90831633189587 0.990646363734979 -11.7418941937377 0.990646363734979 -11.7418941937378 0.13645432209526 166.424527944669 
! Gamma  !      0                0.936842724812328 0                0.936842724812429 
! Port Impedance  29.7389650384431 0                40.0095141675636 0                

0.0448           0.136407062543509 -9.93407862852842 0.990652872245471 -11.7682889168217 0.990652872245471 -11.7682889168218 0.136407062543424 166.397500795109 
! Gamma  !      0                0.938938569834288 0                0.938938569834383 
! Port Impedance  29.7389650384422 0                40.0095141675639 0                

0.0449           0.136359706709807 -9.95986700189597 0.990659391711452 -11.7946844606098 0.990659391711452 -11.7946844606098 0.136359706709664 166.370498080874 
! Gamma  !      0                0.941034414856247 0                0.941034414856337 
! Port Impedance  29.7389650384373 0                40.0095141675642 0                

0.045            0.136312254663341 -9.98568153356389 0.990665922109382 -11.8210808266296 0.990665922109383 -11.8210808266296 0.136312254663138 166.343519880475 
! Gamma  !      -0               0.943130259878205 -0               0.943130259878291 
! Port Impedance  29.7389650384492 0                40.0095141675645 0                

0.0451           0.136264706473506 -10.011522305276 0.990672463415675 -11.8474780164069 0.990672463415675 -11.8474780164069 0.136264706473243 166.316566272602 
! Gamma  !      0                0.945226104900162 0                0.945226104900245 
! Port Impedance  29.738965038446  0                40.0095141675648 0                

0.0452           0.136217062209934 -10.0373893989554 0.990679015606696 -11.8738760314655 0.990679015606696 -11.8738760314655 0.136217062209609 166.289637336132 
! Gamma  !      0                0.94732194992212 0                0.947321949922199 
! Port Impedance  29.7389650384453 0                40.0095141675652 0                

0.0453           0.136169321942493 -10.0632828967048 0.990685578658765 -11.900274873327 0.990685578658766 -11.900274873327 0.136169321942104 166.262733150125 
! Gamma  !      0                0.949417794944077 0                0.949417794944153 
! Port Impedance  29.7389650384449 0                40.0095141675655 0                

0.0454           0.136121485741287 -10.0892028808075 0.990692152548157 -11.9266745435111 0.990692152548157 -11.9266745435111 0.136121485740832 166.235853793823 
! Gamma  !      0                0.951513639966033 0                0.951513639966107 
! Port Impedance  29.7389650384447 0                40.0095141675658 0                

0.0455           0.13607355367666 -10.115149433728 0.990698737251095 -11.9530750435355 0.990698737251096 -11.9530750435355 0.136073553676137 166.208999346656 
! Gamma  !      0                0.953609484987989 0                0.953609484988061 
! Port Impedance  29.7389650384446 0                40.0095141675662 0                

0.0456           0.136025525819193 -10.1411226381123 0.99070533274376 -11.9794763749156 0.990705332743761 -11.9794763749156 0.136025525818599 166.182169888239 
! Gamma  !      0                0.955705330009945 0                0.955705330010014 
! Port Impedance  29.7389650384444 0                40.0095141675665 0                

0.0457           0.135977402239706 -10.1671225767891 0.990711939002285 -12.0058785391651 0.990711939002286 -12.0058785391651 0.135977402239039 166.155365498373 
! Gamma  !      0                0.957801175031901 0                0.957801175031968 
! Port Impedance  29.7389650384444 0                40.0095141675669 0                

0.0458           0.135929183009261 -10.1931493327703 0.990718556002755 -12.0322815377955 0.990718556002756 -12.0322815377955 0.135929183008517 166.128586257047 
! Gamma  !      0                0.959897020053856 0                0.959897020053921 
! Port Impedance  29.7389650384443 0                40.0095141675673 0                

0.0459           0.135880868199158 -10.2192029892513 0.99072518372121 -12.0586853723162 0.990725183721212 -12.0586853723162 0.135880868198332 166.101832244437 
! Gamma  !      0                0.961992865075812 0                0.961992865075874 
! Port Impedance  29.7389650384442 0                40.0095141675677 0                

0.046            0.135832457880941 -10.2452836296123 0.990731822133644 -12.0850900442347 0.990731822133645 -12.0850900442346 0.135832457880028 166.075103540909 
! Gamma  !      0                0.964088710097767 0                0.964088710097828 
! Port Impedance  29.7389650384441 0                40.0095141675681 0                

0.0461           0.135783952126393 -10.2713913374185 0.990738471216001 -12.1114955550561 0.990738471216002 -12.1114955550561 0.135783952125386 166.048400227016 
! Gamma  !      0                0.966184555119722 0                0.966184555119781 
! Port Impedance  29.7389650384441 0                40.0095141675685 0                

0.0462           0.135735351007542 -10.2975261964208 0.990745130944182 -12.1379019062839 0.990745130944183 -12.1379019062838 0.135735351006434 166.021722383503 
! Gamma  !      0                0.968280400141676 0                0.968280400141734 
! Port Impedance  29.738965038444  0                40.009514167569  0                

0.0463           0.135686654596659 -10.3236882905569 0.990751801294039 -12.1643090994192 0.990751801294041 -12.1643090994191 0.13568665459544 165.995070091306 
! Gamma  !      0                0.970376245163631 0                0.970376245163687 
! Port Impedance  29.738965038444  0                40.0095141675695 0                

0.0464           0.135637862966259 -10.3498777039513 0.99075848224138 -12.1907171359611 0.990758482241381 -12.190717135961 0.135637862964917 165.968443431549 
! Gamma  !      0                0.972472090185586 0                0.97247209018564 
! Port Impedance  29.7389650384439 0                40.00951416757   0                

0.0465           0.1355889761891  -10.3760945209165 0.990765173761965 -12.2171260174067 0.990765173761966 -12.2171260174066 0.135588976187622 165.941842485552 
! Gamma  !      0                0.97456793520754 0                0.974567935207593 
! Port Impedance  29.7389650384438 0                40.0095141675705 0                

0.0466           0.135539994338191 -10.4023388259536 0.990771875831505 -12.2435357452509 0.990771875831506 -12.2435357452509 0.135539994336559 165.915267334824 
! Gamma  !      0                0.976663780229494 0                0.976663780229546 
! Port Impedance  29.7389650384438 0                40.0095141675711 0                

0.0467           0.135490917486782 -10.4286107037527 0.99077858842567 -12.2699463209868 0.990778588425671 -12.2699463209867 0.135490917484975 165.888718061072 
! Gamma  !      0                0.978759625251448 0                0.978759625251499 
! Port Impedance  29.7389650384437 0                40.0095141675716 0                

0.0468           0.135441745708374 -10.4549102391934 0.990785311520079 -12.296357746105 0.99078531152008 -12.2963577461049 0.135441745706366 165.862194746192 
! Gamma  !      0                0.980855470273402 0                0.980855470273452 
! Port Impedance  29.7389650384437 0                40.0095141675723 0                

0.0469           0.135392479076716 -10.4812375173457 0.990792045090307 -12.3227700220943 0.990792045090308 -12.3227700220942 0.135392479074474 165.835697472279 
! Gamma  !      0                0.982951315295356 0                0.982951315295404 
! Port Impedance  29.7389650384436 0                40.009514167573  0                

0.047            0.135343117665806 -10.5075926234704 0.99079878911188 -12.3491831504414 0.990798789111881 -12.3491831504413 0.13534311766329 165.80922632162  
! Gamma  !      0                0.98504716031731 0                0.985047160317357 
! Port Impedance  29.7389650384436 0                40.0095141675737 0                

0.0471           0.135293661549894 -10.533975643019 0.990805543560281 -12.3755971326309 0.990805543560281 -12.3755971326308 0.135293661547052 165.782781376701 
! Gamma  !      0                0.987143005339264 0                0.987143005339309 
! Port Impedance  29.7389650384435 0                40.0095141675745 0                

0.0472           0.135244110803479 -10.5603866616342 0.990812308410943 -12.4020119701452 0.990812308410943 -12.4020119701451 0.135244110800249 165.756362720204 
! Gamma  !      0                0.989238850361217 0                0.989238850361262 
! Port Impedance  29.7389650384435 0                40.0095141675753 0                

0.0473           0.135194465501314 -10.5868257651492 0.990819083639257 -12.4284276644648 0.990819083639257 -12.4284276644647 0.135194465497619 165.729970435008 
! Gamma  !      0                0.991334695383171 0                0.991334695383215 
! Port Impedance  29.7389650384434 0                40.0095141675763 0                

0.0474           0.135144725718403 -10.6132930395871 0.990825869220564 -12.4548442170681 0.990825869220564 -12.4548442170679 0.135144725714151 165.70360460419  
! Gamma  !      0                0.993430540405124 0                0.993430540405167 
! Port Impedance  29.7389650384433 0                40.0095141675773 0                

0.0475           0.135094891529997 -10.6397885711594 0.990832665130162 -12.4812616294313 0.990832665130162 -12.4812616294311 0.135094891525087 165.677265311028 
! Gamma  !      0                0.995526385427078 0                0.99552638542712 
! Port Impedance  29.7389650384433 0                40.0095141675785 0                

0.0476           0.135044963011583 -10.6663124462649 0.990839471343303 -12.5076799030286 0.990839471343302 -12.5076799030284 0.135044963005919 165.650952638998 
! Gamma  !      0                0.997622230449031 0                0.997622230449072 
! Port Impedance  29.7389650384432 0                40.0095141675798 0                

0.0477           0.134994940238871 -10.6928647514911 0.990846287835192 -12.5340990393322 0.990846287835191 -12.534099039332 0.134994940232393 165.624666671776 
! Gamma  !      0                0.999718075470984 0                0.999718075471024 
! Port Impedance  29.7389650384431 0                40.0095141675812 0                

0.0478           0.134944823287765 -10.7194455736223 0.990853114580992 -12.560519039812 0.990853114580991 -12.5605190398119 0.134944823280509 165.598407493242 
! Gamma  !      0                1.00181392049294 0                1.00181392049298 
! Port Impedance  29.7389650384431 0                40.0095141675829 0                

0.0479           0.134894612234351 -10.7460549996622 0.990859951555819 -12.586939905936 0.990859951555817 -12.5869399059359 0.13489461222652 165.572175187475 
! Gamma  !      0                1.00390976551489 0                1.00390976551493 
! Port Impedance  29.738965038443  0                40.0095141675848 0                

0.048            0.13484430715494 -10.7726931168637 0.990866798734744 -12.6133616391699 0.990866798734742 -12.6133616391698 0.134844307146936 165.545969838757 
! Gamma  !      0                1.00600561053684 0                1.00600561053688 
! Port Impedance  29.7389650384429 0                40.0095141675871 0                

0.0481           0.134793908126179 -10.7993600127383 0.990873656092795 -12.6397842409774 0.990873656092793 -12.6397842409773 0.134793908118521 165.519791531575 
! Gamma  !      0                1.0081014555588  0                1.00810145555883 
! Port Impedance  29.7389650384428 0                40.0095141675898 0                

0.0482           0.134743415225154 -10.8260557750132 0.990880523604955 -12.6662077128198 0.990880523604953 -12.6662077128197 0.134743415218297 165.493640350619 
! Gamma  !      0                1.01019730058075 0                1.01019730058079 
! Port Impedance  29.7389650384427 0                40.0095141675931 0                

0.0483           0.134692828529355 -10.852780491567 0.99088740124616 -12.6926320561564 0.990887401246158 -12.6926320561563 0.134692828523542 165.467516380784 
! Gamma  !      0                1.0122931456027  0                1.01229314560274 
! Port Impedance  29.7389650384427 0                40.0095141675971 0                

0.0484           0.134642148116539 -10.879534250411 0.990894288991304 -12.7190572724441 0.990894288991302 -12.7190572724441 0.134642148111793 165.44141970717  
! Gamma  !      0                1.01438899062465 0                1.01438899062469 
! Port Impedance  29.7389650384426 0                40.0095141676023 0                

0.0485           0.134591374064639 -10.9063171397184 0.990901186815233 -12.7454833631379 0.990901186815231 -12.7454833631379 0.134591374060847 165.415350415083 
! Gamma  !      0                1.01648483564661 0                1.01648483564664 
! Port Impedance  29.7389650384425 0                40.0095141676092 0                

0.0486           0.134540506451761 -10.9331292478593 0.990908094692749 -12.7719103296903 0.990908094692747 -12.7719103296903 0.134540506448757 165.389308590038 
! Gamma  !      0                1.01858068066856 0                1.01858068066859 
! Port Impedance  29.7389650384424 0                40.0095141676187 0                

0.0487           0.134489545356215 -10.9599706634189 0.990915012598607 -12.7983381735516 0.990915012598605 -12.7983381735516 0.134489545353839 165.363294317755 
! Gamma  !      0                1.02067652569051 0                1.02067652569055 
! Port Impedance  29.7389650384423 0                40.009514167633  0                

0.0488           0.134438490856554 -10.9868414751995 0.990921940507518 -12.8247668961701 0.990921940507517 -12.8247668961701 0.134438490854669 165.337307684165 
! Gamma  !      0                1.02277237071247 0                1.0227723707125  
! Port Impedance  29.7389650384422 0                40.0095141676566 0                
