! Touchstone file from project WEST_ICRH_final_bridge_impedance-trans
! Exported from HFSS 15.0.3
!Data is not renormalized
# GHZ S MA
! Modal data exported
! Port[1] = 1:1
! Port[2] = 2:1
! Port[3] = 3:1
0.04             0.0952679249470077 -54.8471319152017 0.703742433839074 -19.6840582000876 0.703811875414783 -19.692267473945 
                0.703742433840797 -19.6840582000947 0.542038487630761 168.42177258908  0.459038811797031 -17.0641272708076 
                0.703811875414762 -19.6922674739376 0.459038811795908 -17.0641272708248 0.541948886978549 168.406184427428 
! Gamma  !      0.000645649488788142 0.838984216737453 0.000210264931885229 0.838548353852216 0.000210939628049502 0.838549035255098 
! Port Impedance  5.68450243700066 -0.00430941901079234 13.684682094451  -0.00334742299429233 13.6864744515374 -0.00334579891080943 

0.0401           0.0952916482235412 -54.9922394675715 0.703740779498479 -19.7335086787625 0.703810075141747 -19.74173668772  
                0.703740779500213 -19.7335086787686 0.542018004055303 168.39310803115  0.459065282380206 -17.1076586969853 
                0.703810075141682 -19.7417366877135 0.459065282379057 -17.1076586970013 0.541928590324992 168.37748314074  
! Gamma  !      0.000646455259183425 0.841080871135468 0.000210527215452064 0.840644462331903 0.000211202761267328 0.840645144588345 
! Port Impedance  5.68449706007861 -0.00430404657347978 13.6846779183762 -0.00334324610047982 13.6864702774936 -0.00334162403712719 

0.0402           0.0953155159996914 -55.1373837402881 0.703739114760936 -19.7829609776325 0.703808264131736 -19.79120770756  
                0.70373911476268 -19.7829609776377 0.541997476601673 168.364445844368 0.459091815886957 -17.1511971645921 
                0.703808264131626 -19.7912077075544 0.459091815885783 -17.1511971646069 0.541908250245622 168.348784239927 
! Gamma  !      0.000647260106486102 0.843177524435224 0.000210789198557653 0.842740570454068 0.000211465593050831 0.842741253562911 
! Port Impedance  5.68449170301915 -0.00429869420150982 13.6846737577213 -0.00333908480685959 13.6864661188621 -0.00333746475610548 

0.0403           0.0953395288423374 -55.2825645534464 0.703737439590316 -19.8324151010749 0.703806442348753 -19.8406805378096 
                0.703737439592069 -19.832415101079 0.541976905348383 168.335786033303 0.459118412312519 -17.194742690249 
                0.703806442348597 -19.8406805378049 0.45911841231132 -17.1947426902626 0.541887866818784 168.320087729581 
! Gamma  !      0.000648064031763963 0.845274176642345 0.000211050881549107 0.844836678220542 0.000211728123748244 0.844837362180633 
! Port Impedance  5.68448636570485 -0.0042933617679498 13.6846696123951 -0.00333493901468751 13.6864619755519 -0.00333332096904768 

0.0404           0.0953636873186678 -55.4277817255116 0.703735753950351 -19.8818710534575 0.703804609756662 -19.8901551828041 
                0.703735753952114 -19.8818710534608 0.541956290374033 168.307128602498 0.459145071651912 -17.238295290567 
                0.703804609756461 -19.8901551828001 0.459145071650687 -17.2382952905795 0.541867440122909 168.291393614268 
! Gamma  !      0.00064886703611966 0.847370827762421 0.000211312264784903 0.846932785633145 0.000211990353719202 0.846933470443338 
! Port Impedance  5.68448104801921 -0.0042880491470778 13.6846654823073 -0.00333080862616193 13.6864578474726 -0.00332919257819926 

0.0405           0.0953879919961698 -55.573035073322 0.703734057804638 -19.9313288391393 0.703802766319193 -19.9396316468696 
                0.70373405780641 -19.9313288391416 0.541935631757311 168.278473556466 0.459171793899946 -17.281854982147 
                0.703802766318947 -19.9396316468664 0.459171793898694 -17.2818549821584 0.541846970236519 168.262701898523 
! Gamma  !      0.000649669120690045 0.849467477801011 0.000211573348634658 0.849028892693688 0.000212252283334516 0.849029578352842 
! Port Impedance  5.68447574984666 -0.00428275621436625 13.684661367368  -0.003326693544411 13.6864537345345 -0.00332507948673498 

0.0406           0.0954124434426189 -55.7183244120929 0.703732351116631 -19.9807884624698 0.703800911999935 -19.9891099343231 
                0.703732351118412 -19.9807884624713 0.541914929576996 168.249820899695 0.459198579051218 -17.3254217815803 
                0.703800911999642 -19.9891099343206 0.45919857904994 -17.3254217815906 0.541826457238224 168.234012586858 
! Gamma  !      0.000650470286645501 0.851564126763637 0.00021183413347892 0.851124999403969 0.000212513912975963 0.851125685910948 
! Port Impedance  5.68447047107252 -0.00427748284646584 13.6846572674882 -0.00332259367348008 13.6864496366486 -0.00332098159874639 

0.0407           0.095437042226068 -55.8636495554194 0.703730633849644 -20.0302499277894 0.703799046762336 -20.0385900494723 
                0.703730633851433 -20.03024992779  0.541894183911951 168.221170636646 0.459225427100114 -17.368995705448 
                0.703799046761998 -20.0385900494706 0.459225427098809 -17.3689957054573 0.541805901206718 168.205325683755 
! Gamma  !      0.000651270535189291 0.85366077465579 0.000212094619708948 0.853221105765776 0.000212775243036066 0.853221793119453 
! Port Impedance  5.68446521158303 -0.0042722289211897 13.6846531825797 -0.00331850891831943 13.6864455537266 -0.00331689881922953 

0.0408           0.0954617889148369 -56.00901031528  0.703728905966849 -20.0797132394291 0.703797170569706 -20.0880719966159 
                0.703728905968645 -20.0797132394289 0.541873394841126 168.192522771752 0.459252338040809 -17.4125767703217 
                0.703797170569321 -20.0880719966148 0.459252338039476 -17.4125767703299 0.541785302220784 168.176641193669 
! Gamma  !      0.000652069867556906 0.855757421482926 0.000212354807726505 0.855317211780886 0.000213036273917887 0.855317899980136 
! Port Impedance  5.68445997126529 -0.00426699431749788 13.6846491125548 -0.00331443918477215 13.6864414856811 -0.00331283105407282 

0.0409           0.0954866840775017 -56.1544065020403 0.703727167431275 -20.1291784017107 0.70379528338521 -20.137555780043 
                0.70372716743308 -20.1291784017096 0.541852562443556 168.163877309418 0.459279311867265 -17.4561649927631 
                0.703795283384779 -20.1375557800426 0.459279311865905 -17.4561649927702 0.541764660359288 168.147959121028 
! Gamma  !      0.000652868285015425 0.857854067250469 0.000212614697943647 0.857413317451066 0.000213297006034813 0.857414006494771 
! Port Impedance  5.6844547500073  -0.00426177891548198 13.6846450573266 -0.00331038437956217 13.686437432425  -0.00330877821004511 

0.041            0.095511728282884 -56.2998379244564 0.703725418205808 -20.1786454189467 0.703793385171873 -20.1870414040337 
                0.70372541820762 -20.1786454189448 0.541831686798358 168.135234254025 0.459306348573235 -17.4997603893242 
                0.703793385171396 -20.1870414040339 0.459306348571847 -17.4997603893303 0.541743975701179 168.119279470235 
! Gamma  !      0.00065366578886288 0.859950711963804 0.000212874290782517 0.859509422778068 0.000213557439810352 0.859510112665117 
! Port Impedance  5.68444954769794 -0.00425658259635017 13.6846410168088 -0.00330634441028263 13.6864333938721 -0.00330474019478401 

0.0411           0.0955369221000401 -56.4453043896789 0.70372365825319 -20.22811429544  0.703791475892574 -20.2365288728586 
                0.703723658255009 -20.2281142954373 0.541810767984733 168.106593609924 0.459333448152258 -17.5433629765475 
                0.70379147589205 -20.2365288728594 0.459333448150843 -17.5433629765526 0.541723248325488 168.090602245663 
! Gamma  !      0.000654462380427627 0.862047355628287 0.000213133586675139 0.861605527763637 0.000213817575677923 0.861606218492923 
! Port Impedance  5.68444436422692 -0.00425140524241235 13.6846369909157 -0.00330231918538428 13.6864293699369 -0.00330071691678438 

0.0412           0.0955622660982504 -56.590805703256 0.703721887536012 -20.2775850354843 0.703789555510048 -20.2860181907789 
                0.703721887537838 -20.2775850354809 0.541789806081964 168.077955381441 0.459360610597664 -17.5869727709658 
                0.703789555509477 -20.2860181907803 0.45936061059622 -17.5869727709699 0.541702478311327 168.06192745166  
! Gamma  !      0.000655258061067729 0.864143998249236 0.000213392586063218 0.863701632409505 0.00021407741408066 0.863702323979928 
! Port Impedance  5.68443919948483 -0.0042462467370656 13.6846329795626 -0.00329830861416419 13.6864253605345 -0.00329670828538694 

0.0413           0.0955877608470087 -56.7363416691382 0.703720106016724 -20.327057643364 0.703787623986882 -20.3355093620466 
                0.703720106018556 -20.3270576433599 0.541768801169411 168.049319572876 0.45938783590257 -17.6305897891024 
                0.703787623986265 -20.3355093620486 0.459387835901098 -17.6305897891056 0.541681665737891 168.033255092546 
! Gamma  !      0.00065605283217034 0.866240639831937 0.000213651289397937 0.865797736717393 0.000214336955471204 0.865798429127857 
! Port Impedance  5.68443405336309 -0.0042411069647799 13.684628982665  -0.00329431260675457 13.6864213655807 -0.00329271421076719 

0.0414           0.0956134069160111 -56.8819120896815 0.703718313657624 -20.3765321233538 0.703785681285519 -20.3850023909042 
                0.703718313659463 -20.376532123349 0.541747753326518 168.020686188499 0.459415124059883 -17.6742140474713 
                0.703785681284854 -20.3850023909067 0.459415124058382 -17.6742140474735 0.54166081068445 168.004585172615 
! Gamma  !      0.000656846695151096 0.868337280381638 0.000213909697139763 0.867893840689011 0.000214596200311511 0.867894533938426 
! Port Impedance  5.68442892575395 -0.00423598581108396 13.6846250001394 -0.00329033107411182 13.6864173849918 -0.0032887346039244 

0.0415           0.0956392048751455 -57.0275167656519 0.703716510420864 -20.4260084797191 0.703783727368251 -20.4344972815848 
                0.703716510422708 -20.4260084797135 0.541726662632804 167.992055232557 0.459442475062297 -17.7178455625767 
                0.70378372736754 -20.4344972815878 0.459442475060767 -17.717845562578 0.541639913230355 167.975917696135 
! Gamma  !      0.000657639651453519 0.870433919903556 0.00021416780975825 0.869989944326056 0.000214855149072651 0.869990638413339 
! Port Impedance  5.6844238165505  -0.00423088316255147 13.6846210319027 -0.00328636392800574 13.6864134186848 -0.00328476937667086 

0.0416           0.0956651552944805 -57.1731554962292 0.703714696268442 -20.4754867167157 0.703781762197223 -20.4839940383119 
                0.703714696270291 -20.4754867167095 0.541705529167867 167.963426709268 0.459469888902297 -17.7614843509136 
                0.703781762196465 -20.4839940383154 0.459469888900738 -17.7614843509141 0.541618973455034 167.947252667344 
! Gamma  !      0.000658431702548422 0.872530558402871 0.000214425627731842 0.872086047630216 0.000215113802234617 0.872086742554287 
! Port Impedance  5.68441872564665 -0.0042257989067874 13.6846170778726 -0.00328241108100891 13.6864094665776 -0.00328081844162126 

0.0417           0.0956912587442547 -57.3188280790115 0.703712871162208 -20.5249668385899 0.703779785734429 -20.5334926652996 
                0.703712871164063 -20.5249668385831 0.54168435301138 167.934800622825 0.459497365572156 -17.8051304289678 
                0.703779785733623 -20.5334926653036 0.459497365570567 -17.8051304289673 0.54159799143799 167.918590090457 
! Gamma  !      0.000659222849933323 0.874627195884727 0.000214683151547688 0.874182150603166 0.000215372160286133 0.874182846362953 
! Port Impedance  5.68441365293708 -0.00422073293241463 13.6846131379673 -0.00327847244648627 13.6864055285883 -0.00327688171218225 

0.0418           0.095717515794866 -57.4645343100191 0.70371103506386 -20.5744488495785 0.703777797941712 -20.5829931667527 
                0.703711035065719 -20.5744488495711 0.541663134243093 167.906176977393 0.459524905063933 -17.8487838132154 
                0.703777797940859 -20.5829931667571 0.459524905062315 -17.8487838132141 0.541576967258801 167.889929969661 
! Gamma  !      0.000660013095131864 0.876723832354236 0.000214940381701448 0.87627825324657 0.000215630223724461 0.876278949841005 
! Port Impedance  5.68440859831733 -0.00421568512906075 13.6846092121058 -0.00327454793858482 13.686401604636  -0.00327295910254218 

0.0419           0.0957439270168602 -57.6102739836989 0.703709187934941 -20.6239327539088 0.703775798780763 -20.632495546866 
                0.703709187936805 -20.6239327539008 0.541641872942829 167.877555777112 0.459552507369481 -17.8924445201236 
                0.703775798779862 -20.6324955468708 0.459552507367833 -17.8924445201214 0.54155590099712 167.861272309117 
! Gamma  !      0.000660802439693237 0.878820467816472 0.000215197318697111 0.878374355562081 0.000215887993055219 0.878375052990101 
! Port Impedance  5.68440356168368 -0.00421065538734511 13.6846053002075 -0.00327063747222355 13.68639769464   -0.00326905052766102 

0.042            0.0957704929809204 -57.7560468929291 0.703707329736841 -20.6734185557982 0.703773788213119 -20.6819998098251 
                0.703707329738709 -20.6734185557896 0.541620569190486 167.848937026094 0.459580172480437 -17.93611256615  
                0.70377378821217 -20.6819998098303 0.459580172478758 -17.9361125661471 0.541534792732674 167.832617112957 
! Gamma  !      0.000661590885191619 0.880917102276475 0.000215453963046805 0.88047045755134 0.000216145468792191 0.880471155811888 
! Port Impedance  5.68439854293323 -0.00420564359886602 13.6846014021926 -0.00326674096308348 13.6863937985207 -0.00326515590326041 

0.0421           0.0957972142578562 -57.9018528290236 0.703705460430795 -20.7229062594547 0.703771766200165 -20.7315059598058 
                0.703705460432667 -20.7229062594456 0.541599223066031 167.820320728428 0.459607900388228 -17.9797879677432 
                0.703771766199168 -20.7315059598114 0.45960790038652 -17.9797879677395 0.541513642545259 167.803964385291 
! Gamma  !      0.000662378433225613 0.883013735739251 0.000215710315270617 0.882566559215977 0.000216402651457148 0.882567258308   
! Port Impedance  5.68439354196384 -0.00420064965618824 13.6845975179817 -0.0032628583275979 13.6863899161987 -0.00326127514581387 

0.0422           0.0958240914185923 -58.0476915817363 0.703703579977882 -20.7723958690766 0.703769732703129 -20.7810140009743 
                0.703703579979758 -20.7723958690669 0.541577834649507 167.791706888172 0.459635691084072 -18.0234707413427 
                0.703769732702084 -20.7810140009802 0.459635691082333 -18.0234707413383 0.541492450514747 167.775314130198 
! Gamma  !      0.000663165085417691 0.885110368209767 0.000215966375896414 0.88466266055761 0.000216659541579661 0.884663360480062 
! Port Impedance  5.68438855867414 -0.0041956734528306 13.6845936474962 -0.00325898948294273 13.6863860475954 -0.00325740817253723 

0.0423           0.0958511250341579 -58.1935629392662 0.703701688339024 -20.8218873888524 0.703767687683083 -20.8305239374872 
                0.703701688340903 -20.8218873888422 0.541556404021025 167.763095509362 0.459663544558972 -18.0671609033787 
                0.70376768768199 -20.8305239374935 0.459663544557202 -18.0671609033735 0.541471216721075 167.746666351734 
! Gamma  !      0.00066395084341365 0.887206999692959 0.000216222145459662 0.886758761577845 0.000216916139696931 0.886759462329686 
! Port Impedance  5.68438359296353 -0.00419071488325383 13.684589790658  -0.00325513434702708 13.6863821926328 -0.00325355490137913 

0.0424           0.0958783156756755 -58.3394666882618 0.703699785474984 -20.871380822961 0.703765631100944 -20.8800357734914 
                0.703699785476866 -20.8713808229503 0.541534931260766 167.734486596005 0.459691460803721 -18.1108584702722 
                0.703765631099803 -20.880035773498 0.459691460801922 -18.1108584702663 0.541449941244253 167.718021053928 
! Gamma  !      0.000664735708882067 0.889303630193725 0.000216477624503253 0.888854862278278 0.000217172446353603 0.88885556385847 
! Port Impedance  5.68437864473216 -0.00418577384284867 13.6845859473896 -0.00325129283848392 13.6863783512333 -0.00324971525101173 

0.0425           0.09590566391435 -58.4854026138262 0.703697871346368 -20.9208761755715 0.703763562917469 -20.929549513124 
                0.703697871348253 -20.9208761755604 0.541513416448978 167.705880152084 0.459719439808902 -18.1545634584353 
                0.703763562916281 -20.9295495131308 0.459719439807072 -18.1545634584288 0.541428624164358 167.689378240782 
! Gamma  !      0.000665519683513769 0.891400259716928 0.000216732813577327 0.890950962660492 0.000217428462101596 0.890951665068004 
! Port Impedance  5.68437371388091 -0.00418085022792402 13.684582117614  -0.0032474648766609 13.6863745233201 -0.00324588914082155 

0.0426           0.0959331703214574 -58.6313704995221 0.703695945913621 -20.9703734508433 0.703761483093257 -20.9790651605123 
                0.703695945915508 -20.9703734508317 0.54149185966598 167.677276181554 0.459747481564884 -18.198275884271 
                0.70376148309202 -20.9790651605195 0.459747481563023 -18.1982758842638 0.541407265561535 167.660737916271 
! Gamma  !      0.000666302769021302 0.893496888267396 0.000216987713239101 0.893047062726059 0.000217684187499932 0.893047765959866 
! Port Impedance  5.68436880031144 -0.00417594393569544 13.6845783012549 -0.0032436503816114 13.6863707088169 -0.00324207649090046 

0.0427           0.0959608354683342 -58.7773701273762 0.703694009137026 -21.0198726529257 0.703759391588747 -21.0285827197741 
                0.703694009138915 -21.0198726529137 0.541470260992156 167.648674688345 0.459775586061826 -18.2419957641733 
                0.703759391587462 -21.0285827197815 0.459775586059934 -18.2419957641654 0.541385865515995 167.632100084347 
! Gamma  !      0.00066708496713841 0.89559351584992 0.000217242324052701 0.89514316247654 0.00021793962311456 0.89514386653562 
! Port Impedance  5.68436390392609 -0.00417105486427369 13.6845744982365 -0.00323984927408557 13.6863669076479 -0.00323827722203681 

0.0428           0.0959886599263659 -58.9234012778852 0.703692060976706 -21.0693737859586 0.703757288364216 -21.0781021950171 
                0.703692060978597 -21.0693737859462 0.541448620507955 167.620075676362 0.459803753289674 -18.285723114527 
                0.703757288362883 -21.0781021950248 0.45980375328775 -18.2857231145185 0.541364424108015 167.603464748934 
! Gamma  !      0.000667866279619518 0.897690142469258 0.000217496646588993 0.897239261913484 0.000218194769518192 0.897239966796821 
! Port Impedance  5.68435902462797 -0.00416618291265358 13.6845707084836 -0.00323606147552168 13.6863631197378 -0.00323449125570669 

0.0429           0.0960166442669761 -59.0694637300203 0.703690101392621 -21.1188768540717 0.703755173379782 -21.1276235903393 
                0.703690101394514 -21.1188768540589 0.541426938293893 167.591479149482 0.459831983238162 -18.329457951708 
                0.7037551733784  -21.1276235903472 0.459831983236208 -18.329457951699 0.541342941417936 167.574831913929 
! Gamma  !      0.000668646708239224 0.89978676813013 0.000217750681425415 0.899335361038427 0.000218449627290135 0.89933606674501 
! Port Impedance  5.68435416232088 -0.0041613279807029 13.6845669319214 -0.00323228690803747 13.6863593450122 -0.00323071851406538 

0.043            0.0960447890616153 -59.2155572612326 0.703688130344566 -21.1683818613849 0.703753046595397 -21.1771469098288 
                0.70368813034646 -21.1683818613717 0.541405214430548 167.562885111558 0.459860275896815 -18.3732002920835 
                0.703753046593967 -21.1771469098369 0.459860275894829 -18.3732002920739 0.541321417526165 167.546201583205 
! Gamma  !      0.000669426254791793 0.901883392837222 0.000218004429145815 0.901431459852896 0.000218704197016124 0.901432166381719 
! Port Impedance  5.68434931690934 -0.00415648996915159 13.684563168476  -0.00322852549442173 13.6863555833968 -0.00322695891993886 

0.0431           0.0960730948817497 -59.3616816474588 0.703686147792172 -21.2178888120082 0.703750907970852 -21.2266721575638 
                0.703686147794067 -21.2178888119947 0.541383448998564 167.534293566417 0.459888631254941 -18.4169501520114 
                0.703750907969373 -21.226672157572 0.459888631252924 -18.4169501520012 0.541299852513168 167.517573760607 
! Gamma  !      0.000670204921090664 0.903980016595184 0.000218257890340287 0.903527558358404 0.000218958479288164 0.903528265708466 
! Port Impedance  5.68434448829858 -0.00415166877958103 13.6845594180736 -0.00322477715812598 13.6863518348182 -0.00322321239681554 

0.0432           0.0961015622988506 -59.5078366631259 0.703684153694906 -21.2673977100417 0.703748757465771 -21.2761993376125 
                0.703684153696801 -21.2673977100279 0.541361642078643 167.50570451786  0.459917049301641 -18.4607075478408 
                0.703748757464243 -21.276199337621 0.459917049299592 -18.4607075478301 0.541278246459477 167.488948449957 
! Gamma  !      0.000670982708967951 0.90607663940863 0.000218511065605014 0.905623656556454 0.000219212474704365 0.905624364726759 
! Port Impedance  5.68433967639452 -0.00414686431441356 13.6845556806413 -0.00322104182325625 13.6863480992033 -0.00321947886883802 

0.0433           0.0961301918843825 -59.6540220811577 0.703682148012064 -21.3169085595754 0.703746595039613 -21.3257284540334 
                0.70368214801396 -21.3169085595613 0.541339793751554 167.477117969661 0.459945530025799 -18.504472495912 
                0.703746595038037 -21.325728454042 0.45994553002372 -18.5044724959009 0.541256599445683 167.46032565505  
! Gamma  !      0.000671759620273967 0.90817326128214 0.000218763955542107 0.907719754448538 0.000219466183868786 0.907720463438094 
! Port Impedance  5.68433488110378 -0.00414207647690211 13.6845519561066 -0.00321731941456508 13.6863443764798 -0.00321575826079507 

0.0434           0.0961589842097924 -59.8002376729793 0.703680130702781 -21.3664213646894 0.703744420651673 -21.3752595108748 
                0.703680130704677 -21.366421364675 0.541317904098121 167.448533925571 0.459974073416091 -18.5482450125563 
                0.703744420650049 -21.3752595108835 0.459974073413979 -18.5482450125447 0.541234911552438 167.431705379653 
! Gamma  !      0.000672535656876733 0.910269882220256 0.000219016560759448 0.909815852036134 0.000219719607391277 0.909816561843954 
! Port Impedance  5.68433010233364 -0.00413730517112001 13.6845482443975 -0.00321360985744352 13.6863406665756 -0.0032120504981137 

0.0435           0.0961879398464983 -59.9464832085239 0.703678101726017 -21.4159361294537 0.703742234261075 -21.4247925121749 
                0.703678101727913 -21.415936129439 0.541295973199232 167.419952389313 0.460002679460976 -18.5920251140961 
                0.703742234259403 -21.4247925121838 0.460002679458834 -18.5920251140841 0.541213182860452 167.403087627511 
! Gamma  !      0.000673310820661516 0.912366502227486 0.000219268881870539 0.91191194932071 0.000219972745887323 0.911912659945813 
! Port Impedance  5.68432533999209 -0.00413255030195099 13.6845445454426 -0.00320991307791336 13.6863369694194 -0.00320835550685137 

0.0436           0.0962170593658785 -60.0927584562376 0.703676061040567 -21.4654528579282 0.703740035826778 -21.4743274619622 
                0.703676061042463 -21.4654528579133 0.541274001135831 167.391373364586 0.460031348148705 -18.6358128168452 
                0.703740035825057 -21.4743274619712 0.460031348146531 -18.6358128168328 0.541191413450496 167.374472402341 
! Gamma  !      0.000674085113530351 0.914463121308302 0.000219520919494347 0.914008046303722 0.000220225599977894 0.914008757745131 
! Port Impedance  5.68432059398778 -0.0041278117750793 13.6845408591709 -0.00320622900261946 13.6863332849403 -0.00320467321368826 

0.0437           0.0962463433392598 -60.2390631830857 0.703674008605055 -21.5149715541628 0.703737825307568 -21.5238643642547 
                0.70367400860695 -21.5149715541476 0.541251987988923 167.362796855063 0.460060079467312 -18.6796081371082 
                0.703737825305798 -21.5238643642638 0.460060079465106 -18.6796081370954 0.541169603403397 167.345859707835 
! Gamma  !      0.000674858537401585 0.916559739467142 0.000219772674255153 0.916104142986616 0.000220478170289291 0.916104855243358 
! Port Impedance  5.68431586423001 -0.00412308949698 13.6845371855121 -0.00320255755882216 13.6863296130679 -0.00320100354591977 

0.0438           0.0962757923379067 -60.3853971545587 0.703671944377932 -21.5644922221972 0.703735602662064 -21.5734032230607 
                0.703671944379826 -21.5644922221818 0.541229933839567 167.334222864392 0.460088873404621 -18.7234110911812 
                0.703735602660246 -21.5734032230699 0.460088873402383 -18.723411091168 0.54114775280004 167.317249547659 
! Gamma  !      0.000675631094209416 0.918656356708406 0.000220024146782405 0.918200239370824 0.000220730457453 0.91820095244193 
! Port Impedance  5.68431115062876 -0.00411838337490941 13.6845335243963 -0.00319889867438985 13.6863259537324 -0.00319734643144906 

0.0439           0.09630540693301 -60.5317601346781 0.703669868317479 -21.6140148660609 0.703733367848712 -21.6229440423781 
                0.703669868319372 -21.6140148660453 0.54120783876888 167.305651396195 0.460117729948241 -18.7672216953512 
                0.703733367846846 -21.6229440423873 0.460117729945972 -18.7672216953377 0.541125861721364 167.288641925455 
! Gamma  !      0.000676402785903447 0.920752973036461 0.000220275337710571 0.920296335457768 0.000220982462105539 0.920297049342276 
! Port Impedance  5.68430645309465 -0.00411369331689567 13.6845298757541 -0.00319525227779162 13.6863223068644 -0.00319370179877968 

0.044            0.0963351876956756 -60.6781518860028 0.703667780381802 -21.6635394897734 0.703731120825788 -21.6724868261947 
                0.703667780383694 -21.6635394897576 0.541185702858034 167.277082454068 0.460146649085568 -18.8110399658966 
                0.703731120823873 -21.672486826204 0.460146649083267 -18.8110399658828 0.541103930248365 167.260036844839 
! Gamma  !      0.000677173614448237 0.922849588455637 0.000220526247678991 0.922392431248858 0.000221234184888318 0.922393145945809 
! Port Impedance  5.68430177153896 -0.00410901923172952 13.6845262395166 -0.00319161829809009 13.6863186723951 -0.00319006957700843 

0.0441           0.0963651351969132 -60.8245721696347 0.703665680528836 -21.7130660973437 0.703728861551393 -21.7220315784881 
                0.703665680530726 -21.7130660973278 0.541163526188256 167.248516041585 0.460175630803786 -18.854865919087 
                0.70372886154943 -21.7220315784975 0.460175630801454 -18.8548659190729 0.541081958462094 167.2314343094   
! Gamma  !      0.00067794358182286 0.92494620297023 0.000220776877331738 0.924488526745492 0.000221485626447494 0.924489242253931 
! Port Impedance  5.6842971058736  -0.00410436102895514 13.6845226156155 -0.00318799666493426 13.6863150502561 -0.00318644969581823 

0.0442           0.0963952500076251 -60.9710207452258 0.703663568716339 -21.7625946927708 0.703726589983454 -21.7715783032259 
                0.703663568718226 -21.7625946927548 0.541141308840827 167.219952162291 0.460204675089863 -18.8986995711831 
                0.703726589981443 -21.7715783032352 0.4602046750875  -18.8986995711687 0.541059946443652 167.202834322703 
! Gamma  !      0.000678712690020476 0.927042816584498 0.000221027227317472 0.926584621949057 0.000221736787433827 0.926585338268036 
! Port Impedance  5.68429245601112 -0.00409971861886122 13.6845190039828 -0.00318438730855254 13.6863114403797 -0.0031828420854711 

0.0443           0.0964255326985948 -61.1174973709836 0.703661444901893 -21.8121252800433 0.703724306079726 -21.821127004365 
                0.703661444903778 -21.8121252800272 0.541119050897082 167.191390819707 0.460233781930555 -18.9425409384368 
                0.703724306077667 -21.8211270043744 0.46023378192816 -18.9425409384222 0.541037894274198 167.174236888289 
! Gamma  !      0.000679480941047896 0.929139429302667 0.000221277298289305 0.92868071686093 0.000221987668502541 0.928681433989503 
! Port Impedance  5.68428782186469 -0.00409509191247206 13.6845154045511 -0.00318079015974586 13.6863078426983 -0.00317924667680134 

0.0444           0.0964559838404759 -61.2640018036786 0.703659309042904 -21.8616578631396 0.703722009797786 -21.8706776858524 
                0.703659309044787 -21.8616578631233 0.541096752438406 167.16283201733  0.460262951312404 -18.9863900370915 
                0.703722009795678 -21.8706776858618 0.460262951309978 -18.9863900370766 0.541015802034939 167.14564200967  
! Gamma  !      0.000680248336925165 0.931236041128927 0.00022152709090466 0.930776811482474 0.000222238270313186 0.9307775294197  
! Port Impedance  5.68428320334812 -0.00409048082153893 13.6845118172536 -0.00317720514988092 13.6863042571452 -0.00317566340120872 

0.0445           0.0964866040037807 -61.4105337986498 0.703657161096602 -21.9111924460276 0.703719701095035 -21.9202303516246 
                0.703657161098482 -21.9111924460113 0.541074413546237 167.134275758631 0.460292183221736 -19.0302468833815 
                0.703719701092879 -21.9202303516341 0.460292183219279 -19.0302468833665 0.540993669807134 167.117049690338 
! Gamma  !      0.000681014879685138 0.933332652067431 0.000221776605825134 0.932872905815041 0.0002224885935295 0.932873624559984 
! Port Impedance  5.68427860037583 -0.00408588525853145 13.6845082420238 -0.00317363221088347 13.6863006836538 -0.00317209219065179 

0.0446           0.0965173937588689 -61.5570931098118 0.703655001020037 -21.960729032665 0.703717379928697 -21.9697850056079 
                0.703655001021914 -21.9607290326486 0.541052034302062 167.105722047056 0.460321477644665 -19.0741114935326 