! Touchstone file from project WEST_ICRH_final_bridge_impedance-trans
! Exported from HFSS 15.0.3
!Data is not renormalized
# GHZ S MA
! Modal data exported
! Port[1] = 1:1
! Port[2] = 2:1
0.04             0.400152483354498 92.1897996604501 0.915040849050999 -135.201748175645 0.915040849050999 -135.201748175645 0.399485195291298 177.538033403644 
! Gamma  !      0.000125960895878941 0.838463990918997 0.000636319656439205 0.838975208311349 
! Port Impedance  40.0203069646831 -0.00599663613916703 5.89109797001898 -0.00429714269172183 

0.0401           0.397972624726199 91.7852622949242 0.915986835837711 -135.60878505373 0.915986835837711 -135.60878505373 0.397310770619056 177.129184559311 
! Gamma  !      0.00012611827536338 0.840559993320172 0.000637115658485352 0.841071849348118 
! Port Impedance  40.0202994731296 -0.00598914681507266 5.89109260433887 -0.00429178511077076 

0.0402           0.395786014423137 91.3780655372322 0.916929583482409 -136.01627286538 0.916929583482408 -136.01627286538 0.395129651720616 176.722101054367 
! Gamma  !      0.000126275458725896 0.842655995525254 0.000637910668669625 0.843168489392936 
! Port Impedance  40.020292009514  -0.00598168541909267 5.89108725869132 -0.00428644752173298 

0.0403           0.393592740230812 90.9681667123374 0.917869016333969 -136.424210497866 0.917869016333969 -136.424210497866 0.392941926825278 176.316827868764 
! Gamma  !      0.000126432446698622 0.844751997534971 0.000638704690688698 0.845265128449502 
! Port Impedance  40.0202845736627 -0.00597425177778968 5.89108193295199 -0.00428112980059937 

0.0404           0.391392892884298 90.555522106932  0.91880505845354 -136.832596797524 0.918805058453539 -136.832596797524 0.390747687119066 175.91341110162  
! Gamma  !      0.000126589240009114 0.846847999350052 0.000639497728216429 0.847361766521494 
! Port Impedance  40.0202771654038 -0.00596684571923259 5.89107662699762 -0.00427583182443332 

0.0405           0.389186566140347 90.1400869392964 0.919737633624391 -137.24143056949 0.919737633624391 -137.24143056949 0.388547026816914 175.511898001713 
! Gamma  !      0.000126745839380385 0.848944000971216 0.000640289784904049 0.849458403612565 
! Port Impedance  40.020269784567  -0.00595946707297972 5.89107134070599 -0.00427055347135894 

0.0406           0.386973856851642 89.7218153282672 0.920666665361994 -137.650710577449 0.920666665361994 -137.650710577449 0.386340043236994 175.112336998867 
! Gamma  !      0.000126902245530946 0.85104000239918 0.00064108086438036 0.851555039726347 
! Port Impedance  40.0202624309833 -0.00595211567006221 5.89106607395598 -0.00426529462054931 

0.0407           0.384754865043264 89.3006602612922 0.921592076924321 -138.060435543385 0.92159207692432 -138.060435543385 0.38412683687726 174.714777736208 
! Gamma  !      0.000127058459174854 0.853136003634657 0.000641870970251921 0.853651674866448 
! Port Impedance  40.0202551044851 -0.00594479134296757 5.89106082662746 -0.00426005515221499 

0.0408           0.382529693991477 88.8765735615514 0.922513791322367 -138.470604147334 0.922513791322367 -138.470604147333 0.381907511494297 174.319271103344 
! Gamma  !      0.000127214481021742 0.855232004678356 0.000642660106103237 0.855748309036454 
! Port Impedance  40.0202478049064 -0.00593749392562359 5.89105559860138 -0.00425483494759267 

0.0409           0.380298450304903 88.4495058541213 0.923431731330904 -138.881215027146 0.923431731330903 -138.881215027146 0.379682174184565 173.925869270466 
! Gamma  !      0.000127370311776864 0.857328005530979 0.000643448275496946 0.857844942239932 
! Port Impedance  40.0202405320825 -0.00593022325338228 5.89105038975966 -0.00424963388893392 

0.041            0.378061244008189 88.0194065311637 0.924345819499443 -139.292266778259 0.924345819499443 -139.292266778259 0.377450935468129 173.534625723405 
! Gamma  !      0.000127525952141133 0.859424006193228 0.000644235481974003 0.859941574480424 
! Port Impedance  40.0202332858501 -0.00592297916300421 5.89104519998528 -0.00424445185949412 

0.0411           0.375818188628264 87.586223716116  0.925255978163432 -139.703757953465 0.925255978163432 -139.703757953465 0.375213909374965 173.145595299652 
! Gamma  !      0.000127681402811161 0.861520006665796 0.000645021729053862 0.862038205761452 
! Port Impedance  40.0202260660475 -0.00591576149264297 5.89104002916217 -0.00423928874352155 

0.0412           0.373569401283287 87.1499042268649 0.926162129455669 -140.115687062698 0.926162129455669 -140.115687062697 0.372971213533955 172.758834225368 
! Gamma  !      0.000127836664479293 0.863616006949376 0.000645807020234656 0.864134836086515 
! Port Impedance  40.020218872514  -0.00590857008182982 5.89103487717527 -0.00423414442624661 

0.0413           0.371315002774375 86.7103935378826 0.927064195317931 -140.528052572815 0.92706419531793 -140.528052572815 0.370722969264664 172.374400153403 
! Gamma  !      0.000127991737833648 0.865712007044654 0.000646591358993375 0.866231465459092 
! Port Impedance  40.0202117050907 -0.00590140477145863 5.8910297439105  -0.00422901879387116 

0.0414           0.36905511768025 86.2676357413079 0.92796209751283 -140.940852907397 0.92796209751283 -140.940852907396 0.368469301672011 171.992352202329 
! Gamma  !      0.000128146623558154 0.867808006952313 0.000647374748786043 0.868328093882642 
! Port Impedance  40.0202045636197 -0.00589426540377097 5.89102462925473 -0.00422391173355805 

0.0415           0.366789874454886 85.8215735069535 0.928855757635888 -141.354086446545 0.928855757635887 -141.354086446545 0.366210339743938 171.612750996524 
! Gamma  !      0.000128301322332586 0.869904006673032 0.000648157193047893 0.870424721360602 
! Port Impedance  40.0201974479445 -0.00588715182234134 5.89101953309579 -0.00421882313342071 

0.0416           0.364519405528294 85.3721480412244 0.929745097127815 -141.767751526691 0.929745097127814 -141.767751526691 0.363946216452215 171.235658707297 
! Gamma  !      0.000128455834832603 0.872000006207485 0.000648938695193537 0.872521347896387 
! Port Impedance  40.0201903579101 -0.00588006387206276 5.89101445532246 -0.004213752882513 

0.0417           0.362243847410561 84.9192990449301 0.930630037287021 -142.181846440416 0.93063003728702 -142.181846440415 0.361677068856467 170.861139095089 
! Gamma  !      0.00012861016172978 0.874096005556344 0.000649719258617141 0.874617973493394 
! Port Impedance  40.0201832933626 -0.0058730013991324 5.89100939582445 -0.00420870087081903 

0.0418           0.35996334079926 84.4629646699795 0.931510499282327 -142.596369436266 0.931510499282326 -142.596369436266 0.359403038211582 170.489257552749 
! Gamma  !      0.000128764303691648 0.876192004720274 0.000650498886692589 0.876714598154997 
! Port Impedance  40.0201762541494 -0.00586596425103745 5.89100435449239 -0.00420366698924324 

0.0419           0.357678030690382 84.0030814749447 0.932386404165894 -143.011318718592 0.932386404165893 -143.011318718592 0.357124270078605 170.120081149899 
! Gamma  !      0.000128918261381726 0.87828800369994 0.000651277582773655 0.878811221884553 
! Port Impedance  40.0201692401193 -0.00585895227654123 5.89099933121782 -0.0041986511296006 

0.042            0.355388066492897 83.5395843794849 0.933257672886362 -143.426692447384 0.933257672886362 -143.426692447384 0.354840914439264 169.753678678396 
! Gamma  !      0.000129072035459557 0.880384002495999 0.000652055350194166 0.880907844685395 
! Port Impedance  40.0201622511223 -0.00585196532566939 5.8909943258932  -0.00419365318460683 

0.0421           0.353093602147116 83.0724066176241 0.934124226302195 -143.842488738118 0.934124226302194 -143.842488738118 0.352553125814262 169.390120698895 
! Gamma  !      0.000129225626580739 0.882480001109106 0.000652832192268165 0.883004466560841 
! Port Impedance  40.0201552870097 -0.00584500324969637 5.89098933841187 -0.00418867304786887 

0.0422           0.35079479624697 82.6014796898761 0.93498598519523 -144.258705661613 0.934985985195229 -144.258705661613 0.350261063385477 169.029479588514 
! Gamma  !      0.000129379035396964 0.884575999539913 0.000653608112290078 0.885101087514185 
! Port Impedance  40.0201483476338 -0.00583806590113202 5.89098436866806 -0.0041837106138754 

0.0423           0.34849181216637 82.126733314218  0.935842870284434 -144.675341243895 0.935842870284434 -144.675341243895 0.34796489112222 168.671829589605 
! Gamma  !      0.000129532262556048 0.886671997789067 0.000654383113534865 0.887197707548703 
! Port Impedance  40.0201414328485 -0.00583115313370837 5.89097941655689 -0.0041787657779875 

0.0424           0.346184818189808 81.6480953759122 0.936694802239857 -145.092393466065 0.936694802239856 -145.092393466065 0.345664777911701 168.317246859616 
! Gamma  !      0.000129685308701962 0.88876799585721 0.000655157199258189 0.889294326667653 
! Port Impedance  40.0201345425085 -0.00582426480236658 5.89097448197432 -0.00417383843642948 

0.0425           0.343873987647337 81.1654918761855 0.937541701696783 -145.509860264186 0.937541701696782 -145.509860264186 0.34336089769386 167.965809522051 
! Gamma  !      0.000129838174474869 0.890863993744983 0.000655930372696568 0.891390944874272 
! Port Impedance  40.02012767647   -0.00581740076324412 5.89096956481718 -0.0041689284862797 

0.0426           0.341559499054117 80.6788468797745 0.938383489270078 -145.927739529167 0.938383489270077 -145.927739529167 0.341053429600726 167.617597718496 
! Gamma  !      0.000129990860511154 0.892959991453022 0.000656702637067529 0.893487562171779 
! Port Impedance  40.0201208345903 -0.00581056087366201 5.89096466498314 -0.00416403582546166 

0.0427           0.339241536254679 80.1880824613543 0.939220085568729 -146.346029106668 0.939220085568728 -146.346029106667 0.338742558100465 167.272693661704 
! Gamma  !      0.000130143367443455 0.895055988981959 0.000657473995569766 0.895584178563373 
! Port Impedance  40.0201140167279 -0.00580374499211232 5.89095978237074 -0.00415916035273509 

0.0428           0.336920288572095 79.6931186508718 0.940051411210572 -146.764726797   0.940051411210572 -146.764726797   0.336428473146292 166.931181689717 
! Gamma  !      0.000130295695900697 0.897151986332422 0.00065824445138329 0.897680794052234 
! Port Impedance  40.0201072227422 -0.00579695297824581 5.89095491687931 -0.00415430196768719 

0.0429           0.334595950962205 79.1938733778118 0.940877386837202 -147.183830355051 0.940877386837201 -147.183830355051 0.33411137033042 166.59314832098  
! Gamma  !      0.00013044784650812 0.899247983505036 0.000659014007669579 0.899777408641527 
! Port Impedance  40.0201004524942 -0.0057901846928597 5.89095006840902 -0.00414946057072402 

0.043            0.332268724173122 78.6902624144311 0.941697933129069 -147.603337490207 0.941697933129068 -147.603337490207 0.33179145104322 166.258682310421 
! Gamma  !      0.000130599819887311 0.901343980500422 0.000659782667571732 0.901874022334394 
! Port Impedance  40.0200937058456 -0.0057834399978856 5.89094523686086 -0.00414463606306192 

0.0431           0.329938814910165 78.1821993180039 0.942512970820749 -148.02324586629 0.942512970820748 -148.02324586629 0.329468922637779 165.927874706448 
! Gamma  !      0.000130751616656236 0.903439977319198 0.000660550434214609 0.903970635133961 
! Port Impedance  40.0200869826595 -0.00577671875637767 5.89094042213661 -0.00413982834671913 

0.0432           0.327606436006425 77.6695953721295 0.943322420716391 -148.443553101507 0.943322420716391 -148.443553101507 0.327143998600042 165.600818908801 
! Gamma  !      0.000130903237429266 0.905535973961979 0.000661317310704985 0.906067247043336 
! Port Impedance  40.0200802828    -0.00577002083250081 5.89093562413886 -0.00413503732450741 

0.0433           0.325271806599162 77.1523595271656 0.944126203705333 -148.864256768403 0.944126203705333 -148.864256768402 0.324816898724715 165.277610727207 
! Gamma  !      0.000131054682817213 0.907631970429374 0.00066208330013169 0.908163858065608 
! Port Impedance  40.0200736061323 -0.00576334609151913 5.89093084277097 -0.00413026290002388 

0.0434           0.322935152312215 76.6303983398569 0.944924240777883 -149.285354393828 0.944924240777883 -149.285354393828 0.32248784929714 164.958348440747 
! Gamma  !      0.000131205953427353 0.90972796672199 0.000662848405565754 0.910260468203849 
! Port Impedance  40.0200669525227 -0.00575669439978447 5.8909260779371  -0.00412550497764285 

0.0435           0.320596705444638 76.1036159122463 0.945716453041263 -149.706843458917 0.945716453041262 -149.706843458917 0.320157083281314 164.643132857852 
! Gamma  !      0.000131357049863458 0.911823962840432 0.000663612630060547 0.912357077461112 
! Port Impedance  40.0200603218386 -0.00575006562472509 5.89092132954216 -0.00412076346250784 

0.0436           0.318256705165745 75.571913829963  0.946502761735708 -150.128721399074 0.946502761735707 -150.128721399074 0.317824840514259 164.332067376841 
! Gamma  !      0.000131507972725825 0.913919958785299 0.000664375976651926 0.914453685840435 
! Port Impedance  40.0200537139485 -0.00574345963483456 5.89091659749185 -0.00411603826052367 

0.0437           0.315915397716786 75.0351911000014 0.94728308825072 -150.550985603973 0.94728308825072 -150.550985603973 0.315491367906941 164.025258046853 
! Gamma  !      0.000131658722611303 0.916015954557188 0.000665138448358364 0.916550293344836 
! Port Impedance  40.0200471287218 -0.00573687629966074 5.89091188169261 -0.00411132927834861 

0.0438           0.313573036619438 74.493344088118  0.948057354141468 -150.973633417562 0.948057354141467 -150.973633417562 0.313156919651912 163.722813629079 
! Gamma  !      0.000131809300113324 0.918111950156692 0.000665900048181098 0.918646899977317 
! Port Impedance  40.020040566029  -0.00573031548979486 5.89090718205163 -0.0041066364233867 

0.0439           0.311229882891316 73.9462664559901 0.948825481145327 -151.396662138086 0.948825481145326 -151.396662138086 0.310821757437903 163.424845658113 
! Gamma  !      0.000131959705821927 0.920207945584401 0.000666660779104256 0.920743505740863 
! Port Impedance  40.0200340257419 -0.00572377707686084 5.89090249847683 -0.00410195960378011 

0.044            0.308886205268718 73.3938490983028 0.949587391198559 -151.820069018119 0.949587391198559 -151.820069018119 0.308486150671523 163.13146850327  
! Gamma  !      0.000132109940323788 0.922303940840902 0.000667420644095 0.922840110638441 
! Port Impedance  40.0200275077328 -0.0057172609335047 5.89089783087688 -0.0040972987284016 

0.0441           0.306542280436771 72.8359800799476 0.950343006453126 -152.2438512646  0.950343006453126 -152.2438512646  0.306150376706283 162.842799429676 
! Gamma  !      0.000132260004202244 0.924399935926777 0.000668179646103655 0.924936714673002 
! Port Impedance  40.0200210118755 -0.00571076693338403 5.89089317916117 -0.0040926537068471 

0.0442           0.304198393267203 72.2725445735427 0.951092249293623 -152.66800603889 0.951092249293622 -152.66800603889 0.303814721079104 162.55895865892  
! Gamma  !      0.000132409898037325 0.926495930842607 0.000668937788063843 0.92703331784748 
! Port Impedance  40.0200145380446 -0.00570429495115774 5.89088854323981 -0.00408802444942838 

0.0443           0.301854837063904 71.7034247975067 0.951835042354336 -153.092530456836 0.951835042354335 -153.092530456836 0.301479477754506 162.280069429019 
! Gamma  !      0.000132559622405778 0.928591925588969 0.000669695072892612 0.929129920164793 
! Port Impedance  40.0200080861156 -0.00569784486247579 5.8908839230236  -0.00408341086716574 

0.0444           0.299511913816459 71.1284999549481 0.952571308536417 -153.517421588844 0.952571308536416 -153.517421588844 0.29914494937663 162.006258053443 
! Gamma  !      0.000132709177881091 0.930687920166436 0.000670451503490572 0.93122652162784 
! Port Impedance  40.0200016559651 -0.00569141654396915 5.89087931842409 -0.00407881287178091 

0.0445           0.29716993446183 70.5476461736614 0.953300971025163 -153.942676459969 0.953300971025162 -153.942676459969 0.296811447529259 161.737653978902 
! Gamma  !      0.000132858565033522 0.932783914575577 0.000671207082742015 0.933323122239508 
! Port Impedance  40.0199952474707 -0.00568500987323986 5.89087472935346 -0.00407423037568995 

0.0446           0.294829219154336 69.9607364475526 0.954023953307398 -154.368292050011 0.954023953307398 -154.368292050011 0.294479293003982 161.474389841551 
! Gamma  !      0.000133007784430125 0.934879908816961 0.000671961813515047 0.935419722002664 
! Port Impedance  40.019988860511  -0.00567862472885116 5.89087015572465 -0.00406966329199623 

0.0447           0.29249009754407 69.3676405798533 0.954740179188958 -154.794265293628 0.954740179188957 -154.794265293628 0.292148816076629 161.216601521274 
! Gamma  !      0.000133156836634772 0.936975902891151 0.000672715698661715 0.937516320920161 
! Port Impedance  40.0199824949652 -0.00567226099031784 5.89086559745123 -0.00406511153448357 

0.0448           0.290152909063885 68.7682251285221 0.955449572812252 -155.220593080458 0.955449572812251 -155.220593080458 0.289820356792087 160.964428193617 
! Gamma  !      0.000133305722208183 0.939071896798707 0.000673468741018129 0.939612918994834 
! Port Impedance  40.0199761507139 -0.00566591853809663 5.89086105444747 -0.00406057501760938 

0.0449           0.287818003225046 68.1623533542706 0.956152058673922 -155.647272255252 0.956152058673921 -155.647272255252 0.287494265257589 160.718012378954 
! Gamma  !      0.000133454441707947 0.941167890540187 0.000674220943404589 0.941709516229505 
! Port Impedance  40.0199698276385 -0.00565959725357674 5.8908565266283  -0.00405605365649794 

0.045            0.285485739921627 67.549885171701  0.95684756164257 -156.074299618022 0.956847561642569 -156.074299618022 0.285170901944533 160.477499988368 
! Gamma  !      0.000133602995688549 0.943263884116146 0.000674972308625701 0.943806112626978 
! Port Impedance  40.019963525621  -0.0056532970190705 5.89085201390932 -0.00405154736693376 

0.0451           0.283156489743705 66.9306771040863 0.957536006976555 -156.501671924198 0.957536006976555 -156.501671924198 0.282850637998877 160.243040365731 
! Gamma  !      0.000133751384701391 0.945359877527135 0.000675722839470506 0.945902708190043 
! Port Impedance  40.0199572445448 -0.00564701771780414 5.89084751620677 -0.00404705606535495 

0.0452           0.280830634299368 66.3045822423811 0.958217320341857 -156.9293858848  0.958217320341857 -156.9293858848  0.280533855560097 160.014786325382 
! Gamma  !      0.000133899609294823 0.947455870773703 0.000676472538712597 0.947999302921473 
! Port Impedance  40.0199509842939 -0.0056407592339087 5.89084303343756 -0.00404257966884678 

0.0453           0.27850856654551 65.6714502091049 0.958891427829992 -157.357438166623 0.958891427829992 -157.357438166623 0.278220948088674 159.79289418476  
! Gamma  !      0.000134047670014158 0.949551863856395 0.000677221409110236 0.950095896824027 
! Port Impedance  40.0199447447533 -0.00563452145241096 5.89083856551923 -0.00403811809513523 

0.0454           0.276190691127355 65.0311271278022 0.959558255975977 -157.78582539243 0.959558255975977 -157.78582539243 0.275912320702037 159.577523791277 
! Gamma  !      0.000134195567401702 0.951647856775752 0.000677969453406472 0.952192489900448 
! Port Impedance  40.0199385258088 -0.00562830425922461 5.89083411236995 -0.00403367126258065 

0.0455           0.273877424726594 64.3834555988488 0.960217731776336 -158.214544141158 0.960217731776335 -158.214544141158 0.273608390518803 159.368838542673 
! Gamma  !      0.000134343301996777 0.953743849532315 0.000678716674329262 0.954289082153464 
! Port Impedance  40.0199323273472 -0.00562210754114139 5.89082967390854 -0.0040292390901715 

0.0456           0.271569196417959 63.7282746824442 0.960869782707138 -158.643590948143 0.960869782707137 -158.643590948143 0.271309587011155 159.1670054      
! Gamma  !      0.000134490874335741 0.95583984212662 0.000679463074591582 0.956385673585788 
! Port Impedance  40.019926149256  -0.00561593118582248 5.89082525005441 -0.00402482149751815 

0.0457           0.269266448034007 63.0654198897034 0.961514336742063 -159.072962305351 0.961514336742063 -159.072962305351 0.269016352365075 158.972194892316 
! Gamma  !      0.000134638284952011 0.9579358345592  0.000680208656891541 0.958482264200118 
! Port Impedance  40.0199199914239 -0.00560977508178989 5.89082084072763 -0.00402041840484677 

0.0458           0.266969634537803 62.3947231828433 0.962151322370483 -159.502654661624 0.962151322370483 -159.502654661624 0.266729141848117 158.784581112111 
! Gamma  !      0.000134785534376091 0.960031826830586 0.0006809534239125 0.960578853999138 
! Port Impedance  40.01991385374   -0.00560363911841796 5.89081644584885 -0.0040160297329933 

0.0459           0.264679224403117 61.716012985541  0.962780668615553 -159.932664422935 0.962780668615553 -159.932664422935 0.264448424184314 158.604341700374 
! Gamma  !      0.000134932623135589 0.962127818941306 0.000681697378323176 0.962675442985517 
! Port Impedance  40.0199077360945 -0.00559752318592505 5.89081206533934 -0.00401165540339744 

0.046            0.262395700001664 61.0291142046331 0.963402305052307 -160.362987952664 0.963402305052307 -160.362987952664 0.262174681935705 158.43165782014  
! Gamma  !      0.000135079551755238 0.964223810891884 0.000682440522777762 0.964772031161908 
! Port Impedance  40.0199016383785 -0.00559142717536522 5.89080769912095 -0.00400729533809679 

0.0461           0.260119557996803 60.333848264418  0.964016161825744 -160.793621571877 0.964016161825743 -160.793621571877 0.259908411889901 158.266714117253 
! Gamma  !      0.000135226320756926 0.966319802682842 0.000683182859916029 0.966868618530953 
! Port Impedance  40.0198955604838 -0.00558535097862009 5.89080334711616 -0.00400294945972097 

0.0462           0.257851309743009 59.6300331549222 0.9646221696689  -161.224561559626 0.964622169668899 -161.224561559626 0.257650125452959 158.109698667011 
! Gamma  !      0.000135372930659709 0.9684157943147  0.000683924392363441 0.968965205095275 
! Port Impedance  40.019889502303  -0.00557929448839077 5.890799009248   -0.00399861769148591 

0.0463           0.255591481690317 58.9174834955971 0.965220259920901 -161.655804153253 0.965220259920901 -161.655804153253 0.255400349046737 157.960802905198 
! Gamma  !      0.000135519381979836 0.970511785787973 0.00068466512273126 0.971061790857488 
! Port Impedance  40.0198834637296 -0.00557325759818983 5.89079468544009 -0.00399429995718813 

0.0464           0.253340615792781 58.1960106160195 0.965810364544984 -162.087345548718 0.965810364544983 -162.087345548718 0.253159624509762 157.820221541985 
! Gamma  !      0.000135665675230773 0.972607777103176 0.000685405053616654 0.973158375820187 
! Port Impedance  40.0198774446579 -0.00556724020233352 5.89079037561666 -0.00398999618119911 

0.0465           0.251099269919847 57.4654226552804 0.96639241614647 -162.519181900926 0.96639241614647 -162.519181900926 0.250928509500475 157.688152456996 
! Gamma  !      0.000135811810923219 0.974703768260819 0.000686144187602803 0.975254959985956 
! Port Impedance  40.0198714449829 -0.00556124219593388 5.89078607970246 -0.00398570628845971 

0.0466           0.248868018269399 56.725524681864  0.966966347990704 -162.951309324081 0.966966347990704 -162.951309324081 0.248707577901578 157.564796573764 
! Gamma  !      0.00013595778956513 0.97679975926141 0.000686882527259002 0.977351543357365 
! Port Impedance  40.0198654646004 -0.00555526347489111 5.89078179762285 -0.00398143020447472 

0.0467           0.246647451781006 55.9761188359342 0.967532094020925 -163.383723892041 0.967532094020924 -163.383723892041 0.246497420224001 157.450357711693 
! Gamma  !      0.000136103611661741 0.978895750105454 0.00068762007514077 0.979448125936969 
! Port Impedance  40.0198595034072 -0.00554930393588596 5.89077752930372 -0.0039771678553074 

0.0468           0.244438178547754 55.2170044960666 0.968089588876078 -163.816421638692 0.968089588876078 -163.816421638692 0.244298644008846 157.345042413502 
! Gamma  !      0.000136249277715582 0.980991740793454 0.000688356833789947 0.98154470772731 
! Port Impedance  40.0198535613006 -0.0055433634763722 5.89077327467152 -0.00397291916757411 

0.0469           0.242240824224794 54.4479784725838 0.968638767908552 -164.249398558333 0.968638767908552 -164.249398558333 0.242111874225398 157.249059746016 
! Gamma  !      0.000136394788226502 0.98308773132591 0.000689092805734802 0.983641288730916 
! Port Impedance  40.0198476381787 -0.00553744199456919 5.89076903365325 -0.003968684068439 

0.047            0.240056032432523 53.6688352297687 0.96917956720183 -164.682650606074 0.969179567201829 -164.682650606074 0.239937753663125 157.162621072092 
! Gamma  !      0.000136540143691687 0.98518372170332 0.000689827993490129 0.985737868950303 
! Port Impedance  40.0198417339406 -0.00553153938945457 5.89076480617648 -0.0039644624856088 

0.0471           0.237884465152056 52.8793671393493 0.969711923588051 -165.116173698246 0.969711923588051 -165.116173698246 0.237776943315287 157.085939791294 
! Gamma  !      0.000136685344605682 0.987279711926177 0.000690562399557349 0.987834448387971 
! Port Impedance  40.0198358484858 -0.00552565556075701 5.89076059216927 -0.00396025434732759 

0.0472           0.235726803110375 52.079364767757  0.970235774665477 -165.549963712823 0.970235774665477 -165.549963712823 0.23563012275153 157.019231046894 
! Gamma  !      0.000136830391460409 0.989375701994974 0.00069129602642461 0.989931027046408 
! Port Impedance  40.0198299817149 -0.00551979040894901 5.89075639156026 -0.00395605958237169 

0.0473           0.233583746152252 51.2686171997653 0.970751058815838 -165.984016489859 0.970751058815838 -165.984016489859 0.233497990476554 156.96271139662  
! Gamma  !      0.000136975284745187 0.9914716919102  0.000692028876566885 0.992027604928091 
! Port Impedance  40.0198241335289 -0.00551394383523985 5.89075220427858 -0.00395187812004464 

0.0474           0.231456013595734 50.4469124012113 0.97125771522157 -166.418327831935 0.97125771522157 -166.418327831935 0.231381264271625 156.916598444536 
! Gamma  !      0.000137120024946749 0.993567681672342 0.000692760952446071 0.994124182035481 
! Port Impedance  40.0198183038298 -0.00550811574156857 5.89074803025392 -0.00394770989017213 

0.0475           0.22934434456764 49.6140376235797 0.971755683882923 -166.852893504618 0.971755683882923 -166.852893504618 0.22928068151538 156.881110431315 
! Gamma  !      0.000137264612549267 0.995663671281884 0.00069349225651108 0.996220758371026 
! Port Impedance  40.0198124925203 -0.00550230603059708 5.89074386941645 -0.0039435548230971 

0.0476           0.227249498315167 48.7697798532973 0.97224490563493 -167.287709236934 0.97224490563493 -167.287709236934 0.22719699948004 156.856465780173 
! Gamma  !      0.000137409048034364 0.997759660739308 0.000694222791197941 0.998317333937163 
! Port Impedance  40.0198066995035 -0.00549651460570329 5.89073972169688 -0.00393941284967481 

0.0477           0.225172254489349 47.9139263086251 0.972725322164234 -167.722770721853 0.972725322164235 -167.722770721853 0.225130995598767 156.842882595624 
! Gamma  !      0.000137553331881137 0.999855650045093 0.000694952558929891 1.00041390873632 
! Port Impedance  40.0198009246836 -0.00549074137097438 5.89073558702643 -0.00393528390126804 

0.0478           0.223113413395712 47.046264987055  0.97319687602576 -168.158073616785 0.97319687602576 -168.158073616785 0.223083467699533 156.840578112282 
! Gamma  !      0.000137697464566176 1.00195163919972 0.00069568156211747 1.00251048277089 
! Port Impedance  40.0197951679653 -0.0054849862312001 5.89073146533681 -0.0039311679097423 

0.0479           0.221073796207057 46.1665852661014 0.973659510659226 -168.59361354409 0.973659510659226 -168.59361354409 0.221055234200477 156.849768090905 
! Gamma  !      0.000137841446563577 1.00404762820365 0.000696409803158615 1.0046070560433  
! Port Impedance  40.019789429254  -0.00547924909186617 5.89072735656023 -0.00392706480746111 

0.048            0.219054245132923 45.2746785603316 0.974113170405478 -169.029386091598 0.974113170405479 -169.029386091598 0.219047134261322 156.870666158958 
! Gamma  !      0.000137985278344968 1.00614361705737 0.000697137284438748 1.00670362855591 
! Port Impedance  40.019783708456  -0.00547352985914777 5.89072326062941 -0.00392297452728131 

0.0481           0.217055623539823 44.3703390373806 0.974557800522653 -169.465386813137 0.974557800522653 -169.465386813137 0.217060027885012 156.90348309309  
! Gamma  !      0.00013812896037952 1.00823960576134 0.000697864008330872 1.0088002003111  
! Port Impedance  40.0197780054779 -0.00546782843990305 5.89071917747755 -0.00391889700254847 

0.0482           0.215078816015931 43.4533643955557 0.97499334720214 -169.901611229086 0.97499334720214 -169.901611229086 0.215094795963309 156.948426041038 
! Gamma  !      0.00013827249313397 1.01033559431603 0.000698589977195661 1.01089677131124 
! Port Impedance  40.0197723202274 -0.00546214474166681 5.89071510703832 -0.00391483216709229 

0.0483           0.213124728373476 42.5235567054347 0.975419757584358 -170.338054826922 0.975419757584358 -170.338054826922 0.213152340259708 157.005697680722 
! Gamma  !      0.000138415877072636 1.0124315827219  0.000699315193381544 1.01299334155867 
! Port Impedance  40.0197666526125 -0.00545647867264414 5.89071104924589 -0.00391077995522213 

0.0484           0.211194287581664 41.5807233175954 0.975836979774311 -170.774713061791 0.975836979774311 -170.774713061791 0.211233583322559 157.075495314532 
! Gamma  !      0.000138559112657432 1.01452757097942 0.000700039659224803 1.01508991105572 
! Port Impedance  40.019761002542  -0.00545083014170421 5.89070700403491 -0.00390674030172252 
