! Touchstone file Exported from HFSS 2018.2.0
!        File:           E:/Julien/ICRH/WEST Antenna/Final Design/Front Face Coupling/WEST_ICRH_FrontFace.aedt
!        Generated:      3:37:23  mai 03, 2019
!        Design:         WEST-final-front-face
!        Project:        WEST_ICRH_FrontFace
!        Setup:          Setup1
!        Solution:       Sweep
!
!Data is not renormalized
# GHZ S MA
! Modal data exported
! Port[1] = 1:1
! Port[2] = 2:1
! Port[3] = 3:1
! Port[4] = 4:1
0.02             0.999840296744684 158.58183906945  0.00325360789878075 68.1279664692334 0.000909384903064846 69.9070335930097 0.000292240519379463 -114.587324878427 
                0.00325360789878075 68.1279664692335 0.999839932523701 158.494658957308 2.66919324452697E-05 -150.408838547381 0.000909345880870955 69.9083063910833 
                0.000909384903064847 69.9070335930097 2.66919324452697E-05 -150.408838547381 0.999841015213942 158.493261887979 0.00325347738204962 68.1279983783109 
                0.000292240519379463 -114.587324878427 0.000909345880870956 69.9083063910833 0.00325347738204962 68.1279983783109 0.999840258522528 158.583292527347 
! Gamma         !               4.0130101736869E-05 0.419209158658248 3.99720689063733E-05 0.41920899784595 4.00165988262481E-05 0.419209043086587 4.01456701174725E-05 0.419209174254534 
! Port Impedance46.614469889523  -0.00426168293564608 46.6153272416859 -0.00426167801197034 46.6088794332147 -0.00426167943040802 46.6168535267167 -0.00426168278335852 

0.0201           0.999839613821704 158.471755199666 0.00327095632202748 68.0158363838358 0.000914140698061981 69.8044053973451 0.000293810105207587 -114.713429645115 
                0.00327095632202748 68.0158363838359 0.999839244704179 158.384146905626 2.689816498381E-05 -150.647814945673 0.000914101680595593 69.805689551815  
                0.000914140698061982 69.8044053973451 2.689816498381E-05 -150.647814945673 0.99984033078866 158.382744966443 0.00327082482985815 68.0158686143292 
                0.000293810105207587 -114.713429645115 0.000914101680595594 69.805689551815  0.00327082482985816 68.0158686143292 0.999839575007698 158.47321573396  
! Gamma         !               4.02303751393506E-05 0.421305103923871 4.00719407092638E-05 0.421304942710017 4.01165835927112E-05 0.421304988063613 4.02459824599446E-05 0.421305119559097 
! Port Impedance46.6144592700242 -0.00425106699615286 46.6153166221958 -0.0042510620937091 46.6088688137186 -0.00425106350861875 46.6168429072201 -0.00425106684936974 

0.0202           0.999838929565679 158.361625919825 0.00328832112561469 67.9036596295614 0.00091889964461696 69.7017345638634 0.000295381307336934 -114.839584465664 
                0.0032883211256147 67.9036596295614 0.999838555518866 158.273589577182 2.71053830590241E-05 -150.886185095168 0.000918860635693658 69.7030300506762 
                0.000918899644616961 69.7017345638633 2.71053830590241E-05 -150.886185095168 0.999839644992973 158.272182802882 0.00328818865190156 67.9036921921099 
                0.000295381307336935 -114.839584465664 0.000918860635693658 69.7030300506762 0.00328818865190156 67.9036921921099 0.999838890159451 158.363093526952 
! Gamma         !               4.03303979684896E-05 0.42340104894143 4.01715629433842E-05 0.423400887327015 4.02163185087537E-05 0.423400932793291 4.03460441319937E-05 0.4234010646155  
! Port Impedance46.6144487295331 -0.00424052988349654 46.6153060817134 -0.00424052500137909 46.6088582732305 -0.0042405264128835 46.6168323667311 -0.00424052974191943 

0.0203           0.99983824396422 158.251450993262 0.00330570239518731 67.7914359722127 0.000923661758203683 69.599020904756  0.000296954134558804 -114.965789236514 
                0.00330570239518732 67.7914359722128 0.999837864955495 158.162986736433 2.73135903819537E-05 -151.123952382863 0.000923622761667352 69.6003276991696 
                0.000923661758203684 69.599020904756  2.73135903819537E-05 -151.123952382863 0.999838957814729 158.16157516196  0.0033055689337922 67.7914688777354 
                0.000296954134558805 -114.965789236514 0.000923622761667352 69.6003276991696 0.0033055689337922 67.7914688777354 0.99983820396535 158.252925669617 
! Gamma         !               4.0430172175142E-05 0.425496993712753 4.02709375517307E-05 0.425496831698763 4.03158055195581E-05 0.425496877277442 4.04458570852415E-05 0.425497009425573 
! Port Impedance46.6144382670736 -0.00423007063177731 46.6152956192621 -0.00423006576911891 46.6088478107739 -0.00423006717734177 46.6168219042733 -0.00423007049511702 

0.0204           0.999837557005003 158.141230183176 0.00332310021642978 67.6791651772831 0.00092842705428485 69.496264231664  0.000298528595808487 -115.092043873824 
                0.00332310021642978 67.6791651772831 0.999837173001862 158.052338147708 2.75227906628236E-05 -151.361120185729 0.000928388074007656 69.4975823082727 
                0.000928427054284851 69.496264231664  2.75227906628236E-05 -151.361120185729 0.999838269241834 158.050921808216 0.00332296576118204 67.6791984369724 
                0.000298528595808488 -115.092043873824 0.000928388074007656 69.4975823082727 0.00332296576118205 67.6791984369724 0.999837516413023 158.142711925114 
! Gamma         !               4.05296996823106E-05 0.427592938239645 4.03700664495592E-05 0.427592775827059 4.04150465425343E-05 0.427592821517867 4.05454232434453E-05 0.427592953991119 
! Port Impedance46.6144278816859 -0.00421968829134805 46.6152852338825 -0.00421968344731875 46.6088374253892 -0.00421968485238435 46.6168115188872 -0.00421968815932463 

0.0205           0.999836868675772 158.030963252632 0.00334051467506603 67.5668470099612 0.000933195548311908 69.3934643556894 0.000300104700153169 -115.218348315002 
                0.00334051467506604 67.5668470099612 0.999836479645826 157.941643575208 2.77329876112082E-05 -151.597691870819 0.000933156588194279 69.3947936884485 
                0.000933195548311909 69.3934643556893 2.77329876112082E-05 -151.597691870819 0.999837579262257 157.940222506061 0.00334037921976268 67.5668806352763 
                0.000300104700153169 -115.218348315002 0.000933156588194279 69.3947936884485 0.00334037921976269 67.5668806352763 0.999836827490168 158.032452056468 
! Gamma         !               4.06289823857143E-05 0.429688882523886 4.04689515249514E-05 0.429688719713676 4.05140434678874E-05 0.429688765516339 4.06447445030667E-05 0.429688898313919 
! Port Impedance46.6144175724267 -0.00420938192847045 46.6152749246312 -0.00420937710227661 46.6088271161331 -0.00420937850430941 46.6168012096295 -0.00420938180081316 

0.0206           0.999836178964332 157.920649964559 0.0033579458568595 67.4544812351368 0.000937967255724987 69.2906210874066 0.000301682456779269 -115.344702519799 
                0.0033579458568595 67.4544812351368 0.999835784875305 157.830902783004 2.79441849361969E-05 -151.833670795364 0.000937928319695597 69.2919616496561 
                0.000937967255724988 69.2906210874066 2.79441849361969E-05 -151.833670795364 0.999836887864022 157.829477019776 0.00335780939526524 67.4545152377975 
                0.00030168245677927 -115.344702519799 0.000937928319695596 69.2919616496561 0.00335780939526525 67.4545152377975 0.999836137184542 157.922145826565 
! Gamma         !               4.07280221543449E-05 0.431784826567232 4.05675946393702E-05 0.431784663360363 4.06127981591729E-05 0.431784709274611 4.07438227338292E-05 0.431784842395733 
! Port Impedance46.6144073383687 -0.00419915062498005 46.615264690581  -0.0041991458158633 46.6088168820783 -0.00419914721498764 46.6167909755728 -0.00419915050142732 

0.0207           0.999835487858547 157.81029008175  0.00337539384761301 67.342067617406  0.000942742191952855 69.1877342368735 0.000303261874979524 -115.471106471017 
                0.00337539384761302 67.342067617406  0.999835088678275 157.720115535042 2.81563863465591E-05 -152.069060306861 0.000942703283968602 69.1890860013603 
                0.000942742191952856 69.1877342368735 2.81563863465591E-05 -152.069060306861 0.999836195035213 157.718685113516 0.00337525637346038 67.3421020093864 
                0.000303261874979524 -115.471106471017 0.000942703283968602 69.1890860013603 0.00337525637346038 67.3421020093864 0.999835445483967 157.811792998159 
! Gamma         !               4.08268208310125E-05 0.433880770371418 4.06659976282025E-05 0.433880606768849 4.07113124538403E-05 0.433880652794413 4.08426597792636E-05 0.433880786238293 
! Port Impedance46.6143971786002 -0.00418899347795989 46.6152545308202 -0.00418898868519607 46.6088067223132 -0.00418899008153585 46.6167808158055 -0.00418899335825927 

0.0208           0.999834795346346 157.699883366861 0.00339285873316884 67.2296059210755 0.000947520372412845 69.0848036136417 0.000304842964140068 -115.597560174846 
                0.00339285873316884 67.2296059210755 0.999834391042768 157.609281595134 2.83695955509091E-05 -152.303863743155 0.000947481496458844 69.0861665525416 
                0.000947520372412846 69.0848036136417 2.83695955509091E-05 -152.303863743155 0.999835500763963 157.607846551304 0.00339272024015823 67.2296407145984 
                0.000304842964140069 -115.597560174846 0.000947481496458844 69.0861665525417 0.00339272024015824 67.2296407145984 0.999834752376324 157.701393333864 
! Gamma         !               4.09253802328802E-05 0.435976713938156 4.07641623012917E-05 0.435976549940838 4.08095881637666E-05 0.43597659607745 4.09412574572425E-05 0.435976729843313 
! Port Impedance46.6143870922251 -0.00417890959942249 46.6152444444525 -0.00417890482232065 46.6087966359416 -0.00417890621599905 46.6167707294315 -0.00417890948333059 

0.0209           0.999834101415708 157.589429582413 0.00341034059940857 67.117095910168  0.000952301812510801 68.9818290267666 0.000306425733727756 -115.724063660865 
                0.00341034059940858 67.117095910168  0.999833691956869 157.498400726964 2.85838162578695E-05 -152.538084432501 0.000952262972600368 68.9832031117057 
                0.000952301812510801 68.9818290267666 2.85838162578695E-05 -152.538084432501 0.999834805038458 157.496961097035 0.00341020108120836 67.1171311176988 
                0.000306425733727757 -115.724063660865 0.000952262972600368 68.9832031117058 0.00341020108120837 67.1171311176988 0.999834057849548 157.590946596158 
! Gamma         !               4.10237021519856E-05 0.438072657269138 4.08620904434576E-05 0.438072492878014 4.09076270757768E-05 0.43807253912541 4.1039617560503E-05 0.438072673212486 
! Port Impedance46.6143770783619 -0.00416889811599993 46.6152344305968 -0.00416889335390128 46.6087866220821 -0.00416889474504049 46.6167607155693 -0.00416889800328231 

0.021            0.999833406054674 157.478928490785 0.00342783953225315 67.0045373484261 0.00095708652764101 68.8788102848177 0.000308010193277909 -115.850616981766 
                0.00342783953225316 67.0045373484262 0.999832991408718 157.387472694085 2.87990521762348E-05 -152.771725693625 0.00095704772781565 68.8801954868924 
                0.000957086527641011 68.8788102848177 2.87990521762348E-05 -152.771725693625 0.999834107846939 157.386028514474 0.00342769898249973 67.0045729826671 
                0.00030801019327791 -115.850616981766 0.000957047727815649 68.8801954868924 0.00342769898249973 67.0045729826672 0.999833361891637 157.480452547381 
! Gamma         !               4.11217883557534E-05 0.440168600366032 4.09597838150064E-05 0.440168435582041 4.10054309521539E-05 0.440168481939957 4.11377418571588E-05 0.440168616347479 
! Port Impedance46.6143671361443 -0.00415895816864173 46.6152244883865 -0.00415895342091862 46.6087766798681 -0.00415895480963963 46.6167507733525 -0.00415895805907282 

0.0211           0.999832709251334 157.368379854222 0.00344535561766275 66.8919299993175 0.000961874533186137 68.7757471958878 0.000309596352382655 -115.977220212819 
                0.00344535561766275 66.8919299993175 0.999832289386503 157.27649725992  2.90153070151337E-05 -153.004790835778 0.000961835777515533 68.7771434856842 
                0.000961874533186137 68.7757471958878 2.90153070151337E-05 -153.004790835778 0.999833409177693 157.275048567253 0.00344521402996061 66.8919660732026 
                0.000309596352382656 -115.977220212819 0.000961835777515532 68.7771434856842 0.00344521402996061 66.8919660732025 0.999832664490637 157.369910949732 
! Gamma         !               4.12196405874951E-05 0.442264543230487 4.10572441522286E-05 0.44226437805456 4.11030015311386E-05 0.442264424522734 4.12356320912002E-05 0.442264559249944 
! Port Impedance46.6143572647199 -0.00414908891232027 46.6152146169694 -0.00414908417837518 46.6087668084476 -0.00414908556479756 46.6167409019289 -0.00414908880568328 

0.0212           0.999832010993834 157.257783434827 0.00346288894163676 66.7792736260382 0.000966665844517151 68.672639567602  0.000311184220679978 -116.103873451132 
                0.00346288894163676 66.7792736260382 0.999831585878464 157.165474187757 2.9232584484191E-05 -153.237283158776 0.000966627137099162 68.6740469152152 
                0.000966665844517151 68.672639567602  2.9232584484191E-05 -153.237283158776 0.999832709019052 157.164021018876 0.00346274630955856 66.779310152727  
                0.000311184220679979 -116.103873451132 0.000966627137099161 68.6740469152152 0.00346274630955856 66.779310152727  0.999831965634652 157.259321565275 
! Gamma         !               4.13172605668985E-05 0.444360485864132 4.1154473167887E-05 0.444360320297193 4.12003405274163E-05 0.444360366875366 4.13332899829842E-05 0.444360501921509 
! Port Impedance46.6143474632507 -0.00413928951574367 46.6152048155074 -0.00413928479500818 46.6087570069825 -0.00413928617924987 46.6167311004604 -0.0041392894118304 

0.0213           0.999831311270368 157.147138994565 0.00348043959021373 66.6665679915172 0.000971460476993259 68.5694872071272 0.000312773807843563 -116.230576814744 
                0.00348043959021374 66.6665679915172 0.999830880872884 157.054403240756 2.94508882936888E-05 -153.469205953036 0.000971421821953908 68.570905582179  
                0.000971460476993259 68.5694872071271 2.94508882936888E-05 -153.469205953036 0.999832007359398 157.052945632713 0.00348029590730035 66.6666049843906 
                0.000312773807843565 -116.230576814744 0.000971421821953907 68.5709055821791 0.00348029590730036 66.6666049843906 0.999831265311833 157.148684155931 
! Gamma         !               4.14146499905064E-05 0.446456428268575 4.12514725516926E-05 0.446456262311542 4.12974496325952E-05 0.446456308999455 4.1430717229713E-05 0.446456444363783 
! Port Impedance46.6143377309124 -0.0041295591610756 46.6151950831763 -0.00412955445300945 46.6087472746484 -0.00412955583518658 46.6167213681228 -0.00412955905968639 

0.0214           0.999830610069181 157.036446295259 0.00349800764947132 66.5538128584204 0.00097625844596183 68.46628992118   0.000314365123573505 -116.357330441579 
                0.00349800764947132 66.5538128584204 0.999830174358097 156.943284181942 2.96702221547266E-05 -153.700562499607 0.000976219847455301 68.4677192928368 
                0.00097625844596183 68.4662899211799 2.96702221547267E-05 -153.700562499607 0.999831304187154 156.941822172001 0.00349786290923189 66.5538503310745 
                0.000314365123573506 -116.357330441579 0.0009762198474553 68.4677192928369 0.0034978629092319 66.5538503310745 0.999830563510383 157.037998483481 
! Gamma         !               4.15118105321844E-05 0.448552370445405 4.13482439707714E-05 0.448552204099191 4.1394330515672E-05 0.448552250896588 4.15279155059019E-05 0.448552386578356 
! Port Impedance46.6143280668943 -0.00411989704366218 46.6151854191654 -0.00411989234775226 46.6087376106346 -0.00411989372797902 46.6167117041052 -0.00411989694460573 

0.0215           0.999829907378562 156.925705098596 0.00351559320552617 66.4410079891539 0.000981059766758318 68.3630475160356 0.000315958177587897 -116.484134488309 
                0.00351559320552617 66.441007989154  0.999829466322476 156.832116774208 2.98905897793814E-05 -153.93135607019 0.000981021228966956 68.364487853025  
                0.000981059766758319 68.3630475160356 2.98905897793814E-05 -153.931356070189 0.999830599490786 156.830650399848 0.00351544740143818 66.4410459553958 
                0.000315958177587899 -116.484134488309 0.000981021228966955 68.3644878530251 0.00351544740143818 66.4410459553958 0.999829860218554 156.927264309567 
! Gamma         !               4.16087438435779E-05 0.450648312396194 4.14447890701189E-05 0.450648145661703 4.14909848234889E-05 0.45064819256833 4.16248864638375E-05 0.4506483285668  
! Port Impedance46.6143184703989 -0.00411030237176545 46.6151758226771 -0.00411029768752483 46.6087280141437 -0.0041102990659133 46.6167021076103 -0.00411030227485869 

0.0216           0.999829203186849 156.814915166116 0.00353319634453391 66.3281531458682 0.000985864454706185 68.2597597975357 0.000317552979615331 -116.61098912915 
                0.00353319634453391 66.3281531458683 0.999828756754443 156.720900780312 3.01119948808657E-05 -154.161589927157 0.00098582598184049 68.2612110681628 
                0.000985864454706185 68.2597597975357 3.01119948808657E-05 -154.161589927157 0.999829893258803 156.719430079225 0.0035330494700432 66.3281916197104 
                0.000317552979615333 -116.61098912915 0.000985825981840489 68.2612110681629 0.0035330494700432 66.3281916197104 0.999829155424639 156.816481395688 
! Gamma         !               4.17054515545598E-05 0.452744254122492 4.15411094730465E-05 0.452744087000624 4.15874141811786E-05 0.452744134016228 4.17216317340243E-05 0.452744270330666 
! Port Impedance46.6143089406415 -0.00410077436630338 46.615166292927  -0.00410076969327037 46.608718484391  -0.00410077106993041 46.6166925778535 -0.0041007742713713 

0.0217           0.999828497482424 156.704076259223 0.00355081715268903 66.2152480904612 0.000990672525116819 68.1564265710961 0.000319149539388268 -116.737894554611 
                0.00355081715268904 66.2152480904612 0.999828045642456 156.609635962879 3.03344411736863E-05 -154.391267323563 0.00099063412141545 68.1578887432591 
                0.00099067252511682 68.1564265710962 3.03344411736863E-05 -154.391267323563 0.999829185479752 156.608160972972 0.00355066920120986 66.2152870861173 
                0.000319149539388269 -116.737894554611 0.00099063412141545 68.1578887432592 0.00355066920120986 66.2152870861173 0.999828449116983 156.705649503203 
! Gamma         !               4.18019352736666E-05 0.454840195625833 4.16372067816156E-05 0.454840028117481 4.16836201926001E-05 0.454840075241811 4.18181529256217E-05 0.454840211871488 
! Port Impedance46.6142994768505 -0.00409131226059616 46.615156829143  -0.0040913075983334 46.6087090206047 -0.00409130897337252 46.6166831140629 -0.00409131216747168 

0.0218           0.99982779025371 156.593188139175 0.00356845571622484 66.1022925845815 0.000995483993289456 68.0530476417146 0.000320747866637279 -116.864850970237 
                0.00356845571622485 66.1022925845815 0.999827332975014 156.4983220844   3.05579323738006E-05 -154.620391503151 0.000995445663019229 68.0545206829197 
                0.000995483993289456 68.0530476417146 3.05579323738006E-05 -154.62039150315 0.999828476142218 156.496842843792 0.00356830668113991 66.1023321164616 
                0.000320747866637281 -116.864850970237 0.000995445663019229 68.0545206829198 0.00356830668113992 66.1023321164616 0.999827741283969 156.594768393326 
! Gamma         !               4.18981965885256E-05 0.456936136907733 4.17330825770631E-05 0.456935969013784 4.17796044407643E-05 0.45693601624659 4.19144516268714E-05 0.456936153190784 
! Port Impedance46.6142900782663 -0.00408191530011863 46.615147430566  -0.00408191064821214 46.6086996220254 -0.00408191202173542 46.6166737154791 -0.00408191520864241 

0.0219           0.999827081489172 156.482250567089 0.00358611212141334 65.9892863896322 0.00100029887451109 67.949622813978  0.000322347971086103 -116.991858595349 
                0.00358611212141335 65.9892863896322 0.999826618740657 156.386958907231 3.07824721987737E-05 -154.848965700351 0.00100026062196698 67.9511066913541 
                0.00100029887451109 67.949622813978  3.07824721987737E-05 -154.848965700351 0.999827765234825 156.385475454258 0.00358596199607387 65.9893264723381 
                0.000322347971086104 -116.991858595349 0.00100026062196698 67.9511066913542 0.00358596199607387 65.9893264723381 0.999827031914025 156.48383782713  
! Gamma         !               4.19942370662715E-05 0.45903207796969 4.18287384202164E-05 0.459031909691024 4.18753684882496E-05 0.45903195703206 4.20105294055139E-05 0.459032094290051 
! Port Impedance46.6142807441417 -0.00407258274225861 46.6151380964486 -0.00407257810031692 46.6086902879058 -0.00407257947242692 46.6166643813549 -0.0040725826522789 

0.022            0.999826371177316 156.37126330394  0.00360378645456518 65.8762292667732 0.00100511718405638 67.8461518920693 0.000323949862447474 -117.118917661814 
                0.00360378645456518 65.8762292667732 0.99982590292796 156.275546193592 3.10080643679331E-05 -155.076993140284 0.00100507901356154 67.8476465723818 
                0.00100511718405638 67.8461518920692 3.10080643679331E-05 -155.076993140284 0.99982705274623 156.274058566805 0.00360363523229087 65.8762699150943 
                0.000323949862447475 -117.118917661814 0.00100507901356154 67.8476465723818 0.00360363523229088 65.8762699150944 0.999826320995619 156.372857565546 
! Gamma         !               4.20900582539539E-05 0.461128018813185 4.19241758518991E-05 0.461127850150678 4.19709138776082E-05 0.461127897599697 4.21063878091967E-05 0.461128035170772 
! Port Impedance46.6142714737414 -0.00406331385608105 46.6151288260555 -0.0040633092237343 46.6086810175108 -0.00406331059453098 46.616655110955  -0.0040633137674535 

0.0221           0.999825659306686 156.260226110557 0.0036214788020295 65.7631209769249 0.00100993893718757 67.7426346797746 0.000325553550419672 -117.246028412844 
                0.00362147880202951 65.763120976925  0.999825185525533 156.164083705567 3.12347126025236E-05 -155.304477038749 0.00100990085309332 67.7441401294387 
                0.00100993893718757 67.7426346797746 3.12347126025236E-05 -155.304477038749 0.999826338665125 156.162591943732 0.00362132647610865 65.7631622058337 
                0.000325553550419673 -117.246028412844 0.00100990085309332 67.7441401294388 0.00362132647610865 65.7631622058338 0.999825608517256 156.261827369357 
! Gamma         !               4.21856616789347E-05 0.463223959439683 4.2019396393327E-05 0.463223790394204 4.20662421317623E-05 0.46322383795096 4.22020283658709E-05 0.46322397583441 
! Port Impedance46.614262266342  -0.00405410792209767 46.6151196186633 -0.00405410329899679 46.6086718101167 -0.00405410466857746 46.616645903556  -0.0040541078346852 

0.0222           0.999824945865863 156.149138747627 0.00363918925019392 65.6499612807707 0.00101476414915441 67.6390709804899 0.000327159044683724 -117.373191101843 
                0.00363918925019393 65.6499612807707 0.999824466522023 156.052571205106 3.14624206258609E-05 -155.531420602214 0.00101472615584025 67.6405871655838 
                0.00101476414915441 67.6390709804899 3.14624206258609E-05 -155.531420602214 0.999825622980237 156.051075347205 0.00363903581388338 65.6500031054186 
                0.000327159044683726 -117.373191101843 0.00101472615584025 67.6405871655839 0.00363903581388338 65.6500031054186 0.999824894467482 156.150746999206 
! Gamma         !               4.22810488492768E-05 0.465319899850631 4.21144015464952E-05 0.465319730423042 4.21613547543915E-05 0.465319778087294 4.22974525841813E-05 0.465319916282415 
! Port Impedance46.6142531212312 -0.00404496423204221 46.6151104735598 -0.00404495961785803 46.6086626650114 -0.00404496098631729 46.6166367584456 -0.00404496414571476 

0.0223           0.999824230843464 156.038000975691 0.00365691788548436 65.5367499387594 0.00101959283519403 67.5354605972274 0.000328766354901215 -117.500405991311 
                0.00365691788548436 65.5367499387594 0.999823745906109 155.941008454019 3.16911921634841E-05 -155.757827027804 0.00101955493706765 67.5369874835041 
                0.00101959283519403 67.5354605972274 3.16911921634841E-05 -155.757827027804 0.999824905680324 155.939508539253 0.00365676333200958 65.536792374473  
                0.000328766354901216 -117.500405991311 0.00101955493706765 67.5369874835042 0.00365676333200958 65.536792374473  0.999824178834878 156.03961621559  
! Gamma         !               4.23762212541228E-05 0.46741584004746 4.22091927945552E-05 0.46741567023862 4.22562532303111E-05 0.467415718010126 4.23926619538444E-05 0.467415856516218 
! Port Impedance46.6142440377082 -0.00403588208865076 46.6151013900442 -0.00403587748307325 46.608653581494  -0.00403587885050293 46.616627674923  -0.00403588200328518 

0.0224           0.99982351422814 155.926812555148 0.00367466479436495 65.4234867111088 0.00102442501053087 67.4318033326214 0.000330375490712621 -117.627673351812 
                0.00367466479436496 65.4234867111088 0.9998230236665  155.829395213983 3.19210309433077E-05 -155.983699503282 0.00102438721202816 67.4333408855212 
                0.00102442501053087 67.4318033326214 3.19210309433078E-05 -155.983699503282 0.999824186754172 155.827891281766 0.00367450911692001 65.4235297733854 
                0.000330375490712622 -117.627673351812 0.00102438721202816 67.4333408855212 0.00367450911692001 65.4235297733854 0.99982346160806 155.928434778859 
! Gamma         !               4.24711803640658E-05 0.469511780031586 4.2303771602184E-05 0.469511609842347 4.23509390258408E-05 0.469511657720868 4.24876579460196E-05 0.469511796537236 
! Port Impedance46.6142350150832 -0.00402686080544741 46.6150923674265 -0.00402685620818483 46.6086445588748 -0.00402685757467399 46.6166186522983 -0.00402686072092725 

0.0225           0.999822796008578 155.815573246249 0.00369243006333795 65.3101713578073 0.00102926069037656 67.3280989889352 0.000331986461736138 -117.754993460996 
                0.00369243006333795 65.3101713578073 0.99982229979194 155.717731246534 3.21519406957724E-05 -156.20904120703 0.00102922299596162 67.3296471735965 
                0.00102926069037656 67.3280989889352 3.21519406957724E-05 -156.20904120703 0.999823466190597 155.716223336502 0.00369227325508556 65.3102150623114 
                0.00033198646173614 -117.754993460996 0.00102922299596162 67.3296471735966 0.00369227325508556 65.3102150623114 0.99982274277568 155.81720244922  
! Gamma         !               4.25659276315103E-05 0.47160771980441 4.23981394159442E-05 0.471607549235618 4.24454135891658E-05 0.471607597220916 4.25824420136707E-05 0.471607736346869 
! Port Impedance46.614226052677  -0.00401789970653476 46.6150834050277 -0.00401789511731291 46.6086355964744 -0.0040178964829478 46.6166096898925 -0.00401789962275008 

0.0226           0.999822076173495 155.704282809099 0.00371021377894358 65.1968036386169 0.00103409988992984 67.2243473680659 0.000333599277566922 -117.882366602699 
                0.00371021377894358 65.1968036386169 0.999821574271199 155.606016313073 3.23839251539948E-05 -156.433855308025 0.00103406230409501 67.225906149337  
                0.00103409988992984 67.2243473680659 3.23839251539948E-05 -156.433855308025 0.999822743978448 155.604504465076 0.00371005583301511 65.1968480011766 
                0.000333599277566924 -117.882366602699 0.00103406230409501 67.2259061493371 0.00371005583301511 65.1968480011766 0.99982202232642 155.705918986732 
! Gamma         !               4.26604644910254E-05 0.473703659367316 4.2492297664635E-05 0.473703488419811 4.25396783506879E-05 0.473703536511649 4.26770155919183E-05 0.473703675946502 
! Port Impedance46.6142171498212 -0.00400899812638934 46.6150745021793 -0.0040089935449508 46.6086266936246 -0.00400899490981487 46.6166007870371 -0.00400899804323656 

0.0227           0.999821354711639 155.592941003659 0.00372801602775993 65.0833833130753 0.00103894262437645 67.1205482715511 0.000335213947776695 -118.009793066106 
                0.00372801602775994 65.0833833130753 0.999820847093078 155.494250174861 3.26169880539168E-05 -156.658144965818 0.0010389051516423 67.122117614     
                0.00103894262437644 67.1205482715511 3.26169880539168E-05 -156.658144965817 0.999822020106596 155.49273442897  0.0037278569372554 65.0834283496782 
                0.000335213947776697 -118.009793066106 0.0010389051516423 67.1221176140001 0.0037278569372554 65.0834283496782 0.999821300248997 155.594584151308 
! Gamma         !               4.27547923596888E-05 0.475799598721674 4.25862477596354E-05 0.475799427396292 4.2633734723369E-05 0.475799475594435 4.2771380098385E-05 0.475799615337507 
! Port Impedance46.6142083058577 -0.00400015540966176 46.6150656582232 -0.00400015083576514 46.6086178496672 -0.00400015219993899 46.6165919430739 -0.00400015532704344 

0.0228           0.999820631611789 155.481547589741 0.00374583689640282 64.9699101404983 0.00104378890888902 67.0167015005739 0.000336830481913673 -118.137273144981 
                0.00374583689640282 64.9699101404983 0.999820118246402 155.382432593022 3.28511331344531E-05 -156.881913330501 0.00104375155380438 67.0182813684987 
                0.00104378890888902 67.0167015005738 3.28511331344531E-05 -156.8819133305  0.99982129456394 155.380912989526 0.00374567665439091 64.9699558672884 
                0.000336830481913674 -118.137273144981 0.00104375155380438 67.0182813684987 0.00374567665439091 64.9699558672884 0.999820576532154 155.483197702715 
! Gamma         !               4.28489126374232E-05 0.477895537868839 4.26799910952387E-05 0.477895366166409 4.27275841030663E-05 0.477895414470624 4.28655369335312E-05 0.477895554521238 